           3
     Units: angs.;  Time step:           1  ;  Sim. Time [au]:          20.00
O    -0.14986599E+01    0.81154053E-03    0.38231497E-03
O     0.14991540E+01   -0.38317160E-03   -0.18973020E-03
H    -0.78420876E-02   -0.67990820E-02   -0.30567100E-02
           3
     Units: angs.;  Time step:           2  ;  Sim. Time [au]:          40.00
O    -0.14973635E+01    0.16232914E-02    0.76472500E-03
O     0.14983372E+01   -0.76623132E-03   -0.37941045E-03
H    -0.15454823E-01   -0.13603277E-01   -0.61157217E-02
