           3
 Time step:           1
O   0.1245551781E-03  0.7668940299E-04  0.3612802064E-04
O  -0.7855382563E-04 -0.3619918378E-04 -0.1792454630E-04
H  -0.7301345615E-03 -0.6426617234E-03 -0.2889259782E-03
           3
 Time step:           2
O   0.1198644073E-03  0.7672390601E-04  0.3614361841E-04
O  -0.7591327712E-04 -0.3618559001E-04 -0.1791847997E-04
H  -0.6975933839E-03 -0.6434251168E-03 -0.2892698313E-03
