           6
Time step:                   1 Sim. Time [au]          20.67
C    -0.59676503E-02   -0.10456489E-02    0.33648846E-01
N    -0.89868780E-03   -0.39814384E-02    0.12845223E+01
H     0.10740365E+01    0.92457270E-01   -0.43342971E+00
H     0.90947726E+00   -0.65979878E-01    0.18960956E+01
H    -0.87490597E+00    0.11136291E+00    0.19319373E+01
H    -0.10256222E+01   -0.70554895E-01   -0.48943633E+00
           6
Time step:                   2 Sim. Time [au]          41.34
C    -0.54956045E-02    0.38253482E-02    0.29587614E-01
N     0.35558600E-02   -0.81607216E-02    0.12859539E+01
H     0.10159406E+01    0.69666284E-01   -0.42102798E+00
H     0.88968806E+00   -0.42759809E-01    0.18928178E+01
H    -0.90823589E+00    0.11985151E+00    0.19427377E+01
H    -0.98243085E+00   -0.79405571E-01   -0.48056288E+00
           6
Time step:                   3 Sim. Time [au]          62.01
C    -0.48266385E-02    0.87457355E-02    0.22309252E-01
N     0.75701370E-02   -0.12308562E-01    0.12909694E+01
H     0.95376675E+00    0.46085132E-01   -0.40996167E+00
H     0.86727868E+00   -0.18849443E-01    0.18864423E+01
H    -0.93381354E+00    0.12673793E+00    0.19471943E+01
H    -0.93652213E+00   -0.87579636E-01   -0.47237859E+00
           6
Time step:                   4 Sim. Time [au]          82.68
C    -0.40704634E-02    0.13761940E-01    0.12201883E-01
N     0.11144311E-01   -0.16425895E-01    0.12997370E+01
H     0.89279483E+00    0.21189101E-01   -0.40213366E+00
H     0.84219927E+00    0.62836650E-02    0.18742188E+01
H    -0.95210835E+00    0.13122006E+00    0.19444393E+01
H    -0.89135170E+00   -0.94822938E-01   -0.46632612E+00
           6
Time step:                   5 Sim. Time [au]         103.35
C    -0.35492501E-02    0.18945849E-01    0.12085730E-03
N     0.14094853E-01   -0.20517602E-01    0.13115487E+01
H     0.84107644E+00   -0.61213770E-02   -0.40113238E+00
H     0.81700755E+00    0.33712429E-01    0.18610851E+01
H    -0.96201006E+00    0.13226331E+00    0.19356431E+01
H    -0.85224999E+00   -0.10086295E+00   -0.46527829E+00
           6
Time step:                   6 Sim. Time [au]         124.02
C    -0.36574529E-02    0.24481076E-01   -0.12398439E-01
N     0.16316825E-01   -0.24633907E-01    0.13252613E+01
H     0.80790415E+00   -0.38001866E-01   -0.41109531E+00
H     0.79534333E+00    0.64856965E-01    0.18506985E+01
H    -0.96480794E+00    0.12917535E+00    0.19223258E+01
H    -0.82470169E+00   -0.10576191E+00   -0.47268441E+00
           6
Time step:                   7 Sim. Time [au]         144.69
C    -0.49531461E-02    0.30633415E-01   -0.23171071E-01
N     0.17980362E-01   -0.28910008E-01    0.13389507E+01
H     0.80126442E+00   -0.75578699E-01   -0.43561205E+00
H     0.78086469E+00    0.99853624E-01    0.18486133E+01
H    -0.96388638E+00    0.12386964E+00    0.19071537E+01
H    -0.81268131E+00   -0.11173172E+00   -0.49247395E+00
           6
Time step:                   8 Sim. Time [au]         165.36
C    -0.67382223E-02    0.37174932E-01   -0.34313928E-01
N     0.18139820E-01   -0.33218884E-01    0.13544121E+01
H     0.81751092E+00   -0.11553767E+00   -0.47246548E+00
H     0.77698602E+00    0.13656713E+00    0.18524416E+01
H    -0.95371698E+00    0.11683790E+00    0.18868381E+01
H    -0.81666321E+00   -0.11949207E+00   -0.52090878E+00
           6
Time step:                   9 Sim. Time [au]         186.03
C    -0.86286318E-02    0.44095049E-01   -0.45793036E-01
N     0.16872726E-01   -0.37625627E-01    0.13711595E+01
H     0.85069380E+00   -0.15898188E+00   -0.51829325E+00
H     0.78429152E+00    0.17668311E+00    0.18627006E+01
H    -0.93590188E+00    0.10741800E+00    0.18628724E+01
H    -0.83533310E+00   -0.12793284E+00   -0.55701268E+00
           6
Time step:                  10 Sim. Time [au]         206.70
C    -0.10271024E-01    0.51222128E-01   -0.57820778E-01
N     0.14525369E-01   -0.42150383E-01    0.13888249E+01
H     0.89284430E+00   -0.20510466E+00   -0.56856054E+00
H     0.80067762E+00    0.22064977E+00    0.18782813E+01
H    -0.91305485E+00    0.95598127E-01    0.18371674E+01
H    -0.86502730E+00   -0.13597192E+00   -0.59847974E+00
