           2 
Time step:                2520 Sim. Time [au]
I    -0.66505977E+00    0.00000000E+00    0.00000000E+00
Na    0.62994661E+01    0.00000000E+00    0.00000000E+00
