           2 
Time step:                2520 Sim. Time [au]
I    -0.21366387E-03    0.00000000E+00    0.00000000E+00
Na    0.11794336E-02    0.00000000E+00    0.00000000E+00
