   2
Time step: 2520  
I  -0.2136638718E-03  0.0000000000E+00  0.0000000000E+00
Na  0.1179433635E-02  0.0000000000E+00  0.0000000000E+00
