2
Units: a.u.;  Time step: 1
Ne -0.9020489517E-04  0.2176128593E-03 -0.6184309700E-04
B   0.1623256811E-03 -0.2959515164E-03  0.1034973984E-03
2
Units: a.u.;  Time step: 2
Ne -0.2204569256E-03  0.2570918513E-03 -0.2855368408E-03
B   0.2577573209E-03 -0.4057825776E-03  0.3769130522E-03
