           3
Time step:                   1 Sim. Time [au]          20.00
O    -0.66539547E-03    0.11804744E+00    0.56743346E-03
H     0.76760158E+00   -0.48106269E+00   -0.38541547E-02
H    -0.75609059E+00   -0.46309088E+00   -0.22398247E-02
           3
Time step:                   1 Sim. Time [au]          20.00
O     0.53641885E-03    0.11885853E+00   -0.14423209E-02
H     0.74776161E+00   -0.47249597E+00    0.13508283E-01
H    -0.75658645E+00   -0.48523519E+00    0.12725959E-01
           3
Time step:                   1 Sim. Time [au]          20.00
O     0.18097596E-03    0.11745999E+00   -0.32716823E-03
H     0.76638600E+00   -0.47187728E+00    0.89842221E-03
H    -0.76875128E+00   -0.46238919E+00    0.73461935E-02
           3
Time step:                   1 Sim. Time [au]          20.00
O     0.76286965E-03    0.11730882E+00   -0.11440637E-02
H     0.74069728E+00   -0.46431916E+00    0.15762109E-01
H    -0.75287127E+00   -0.46827626E+00    0.60911100E-02
           3
Time step:                   2 Sim. Time [au]          40.00
O    -0.10720853E-02    0.11798464E+00    0.10697647E-02
H     0.77557498E+00   -0.48799611E+00   -0.72646853E-02
H    -0.75385597E+00   -0.45282053E+00   -0.40953032E-02
           3
Time step:                   2 Sim. Time [au]          40.00
O     0.10783548E-02    0.11953275E+00   -0.29618452E-02
H     0.73826133E+00   -0.47172640E+00    0.27473022E-01
H    -0.75383535E+00   -0.49589341E+00    0.25294978E-01
           3
Time step:                   2 Sim. Time [au]          40.00
O     0.47578443E-03    0.11679089E+00   -0.69211433E-03
H     0.77391634E+00   -0.47012919E+00    0.23730867E-02
H    -0.77802765E+00   -0.45135940E+00    0.14453445E-01
           3
Time step:                   2 Sim. Time [au]          40.00
O     0.15985987E-02    0.11652407E+00   -0.23407477E-02
H     0.72545735E+00   -0.45644190E+00    0.31854452E-01
H    -0.74755473E+00   -0.46317667E+00    0.12095275E-01
           3
Time step:                   3 Sim. Time [au]          60.00
O    -0.16354168E-02    0.11762971E+00    0.15894083E-02
H     0.77995338E+00   -0.49182019E+00   -0.10844072E-01
H    -0.75203164E+00   -0.44088122E+00   -0.55594400E-02
           3
Time step:                   3 Sim. Time [au]          60.00
O     0.10675690E-02    0.11974902E+00   -0.44339987E-02
H     0.72929985E+00   -0.46967893E+00    0.41148713E-01
H    -0.75052849E+00   -0.50299791E+00    0.37601162E-01
           3
Time step:                   3 Sim. Time [au]          60.00
O     0.39079746E-03    0.11585046E+00   -0.10206447E-02
H     0.77912257E+00   -0.46596035E+00    0.37017409E-02
H    -0.78564372E+00   -0.43839592E+00    0.21563882E-01
           3
Time step:                   3 Sim. Time [au]          60.00
O     0.19220197E-02    0.11555705E+00   -0.35033978E-02
H     0.71297787E+00   -0.44929209E+00    0.47550716E-01
H    -0.74274505E+00   -0.45590172E+00    0.17998674E-01
           3
Time step:                   4 Sim. Time [au]          80.00
O    -0.16442064E-02    0.11694211E+00    0.21469235E-02
H     0.78064082E+00   -0.49169484E+00   -0.13354777E-01
H    -0.75040802E+00   -0.42931713E+00   -0.68275066E-02
           3
Time step:                   4 Sim. Time [au]          80.00
O     0.92180657E-03    0.11949085E+00   -0.57934011E-02
H     0.72222372E+00   -0.46621363E+00    0.55514515E-01
H    -0.74561171E+00   -0.50677295E+00    0.48827513E-01
           3
Time step:                   4 Sim. Time [au]          80.00
O     0.53465368E-03    0.11465266E+00   -0.11888970E-02
H     0.78186854E+00   -0.45903335E+00    0.60080959E-02
H    -0.79048182E+00   -0.42540711E+00    0.28213753E-01
           3
Time step:                   4 Sim. Time [au]          80.00
O     0.21088141E-02    0.11447801E+00   -0.45210064E-02
H     0.70554763E+00   -0.44354639E+00    0.63339855E-01
H    -0.73872575E+00   -0.44804902E+00    0.23142864E-01
           3
Time step:                   5 Sim. Time [au]         100.00
O    -0.13369261E-02    0.11604349E+00    0.25814736E-02
H     0.77812070E+00   -0.48868812E+00   -0.15476872E-01
H    -0.75048356E+00   -0.41932001E+00   -0.64659220E-02
           3
Time step:                   5 Sim. Time [au]         100.00
O     0.38205851E-03    0.11884118E+00   -0.70197162E-02
H     0.71850612E+00   -0.46285322E+00    0.69638467E-01
H    -0.73955798E+00   -0.50692939E+00    0.60050347E-01
           3
Time step:                   5 Sim. Time [au]         100.00
O     0.63842801E-03    0.11321901E+00   -0.12225946E-02
H     0.78263525E+00   -0.45058588E+00    0.86000823E-02
H    -0.79351276E+00   -0.41296928E+00    0.35559984E-01
           3
Time step:                   5 Sim. Time [au]         100.00
O     0.19929229E-02    0.11354869E+00   -0.55123081E-02
H     0.70506333E+00   -0.44163732E+00    0.78418059E-01
H    -0.73668751E+00   -0.44068434E+00    0.28986872E-01
           3
Time step:                   6 Sim. Time [au]         120.00
O    -0.80420772E-03    0.11517524E+00    0.28358395E-02
H     0.77065607E+00   -0.48244399E+00   -0.16445536E-01
H    -0.75200299E+00   -0.41099106E+00   -0.59782156E-02
           3
Time step:                   6 Sim. Time [au]         120.00
O    -0.57937803E-03    0.11796045E+00   -0.82783866E-02
H     0.71607479E+00   -0.45948749E+00    0.83528831E-01
H    -0.73192873E+00   -0.50295481E+00    0.69478644E-01
           3
Time step:                   6 Sim. Time [au]         120.00
O     0.65849674E-03    0.11181040E+00   -0.12944007E-02
H     0.77972289E+00   -0.44072435E+00    0.11517633E-01
H    -0.79416193E+00   -0.40081417E+00    0.42324398E-01
           3
Time step:                   6 Sim. Time [au]         120.00
O     0.14953024E-02    0.11289331E+00   -0.66421899E-02
H     0.70923312E+00   -0.44337957E+00    0.92973844E-01
H    -0.73679125E+00   -0.43385279E+00    0.34333798E-01
           3
Time step:                   7 Sim. Time [au]         140.00
O     0.11047440E-03    0.11431083E+00    0.28725244E-02
H     0.75993722E+00   -0.47399629E+00   -0.16441133E-01
H    -0.75522864E+00   -0.40566272E+00   -0.44779832E-02
           3
Time step:                   7 Sim. Time [au]         140.00
O    -0.17755914E-02    0.11682244E+00   -0.95239716E-02
H     0.71655905E+00   -0.45691039E+00    0.96564797E-01
H    -0.72364182E+00   -0.49583620E+00    0.77732253E-01
           3
Time step:                   7 Sim. Time [au]         140.00
O     0.63137020E-03    0.11043286E+00   -0.15527990E-02
H     0.77502164E+00   -0.43077634E+00    0.14179086E-01
H    -0.79298885E+00   -0.38971574E+00    0.49302712E-01
           3
Time step:                   7 Sim. Time [au]         140.00
O     0.78957639E-03    0.11244816E+00   -0.78857846E-02
H     0.71865150E+00   -0.44885735E+00    0.10604887E+00
H    -0.73956206E+00   -0.42826833E+00    0.39656780E-01
           3
Time step:                   8 Sim. Time [au]         160.00
O     0.14415034E-02    0.11342895E+00    0.24922159E-02
H     0.74688677E+00   -0.46451952E+00   -0.14457451E-01
H    -0.76081375E+00   -0.40309022E+00   -0.23739218E-02
           3
Time step:                   8 Sim. Time [au]         160.00
O    -0.29492047E-02    0.11551977E+00   -0.10878843E-01
H     0.71973237E+00   -0.45510085E+00    0.10914401E+00
H    -0.71613035E+00   -0.48636433E+00    0.84753411E-01
           3
Time step:                   8 Sim. Time [au]         160.00
O     0.73539155E-03    0.10915746E+00   -0.21468018E-02
H     0.76945249E+00   -0.42189757E+00    0.17991756E-01
H    -0.79106167E+00   -0.38066182E+00    0.56381690E-01
           3
Time step:                   8 Sim. Time [au]         160.00
O     0.21797217E-03    0.11210322E+00   -0.92556131E-02
H     0.73169739E+00   -0.45695517E+00    0.11818062E+00
H    -0.74580495E+00   -0.42385367E+00    0.44638810E-01
           3
Time step:                   9 Sim. Time [au]         180.00
O     0.29652519E-02    0.11276599E+00    0.19204728E-02
H     0.73323139E+00   -0.45448249E+00   -0.10815938E-01
H    -0.76814464E+00   -0.40246601E+00    0.40621164E-03
           3
Time step:                   9 Sim. Time [au]         180.00
O    -0.41683578E-02    0.11426286E+00   -0.12153995E-01
H     0.72503591E+00   -0.45300054E+00    0.12120737E+00
H    -0.71026981E+00   -0.47538922E+00    0.90852415E-01
           3
Time step:                   9 Sim. Time [au]         180.00
O     0.76138242E-03    0.10829597E+00   -0.28011005E-02
H     0.76362697E+00   -0.41400057E+00    0.23178837E-01
H    -0.78864627E+00   -0.37459206E+00    0.64032200E-01
           3
Time step:                   9 Sim. Time [au]         180.00
O    -0.34735123E-03    0.11202007E+00   -0.10416835E-01
H     0.74634811E+00   -0.46510174E+00    0.12866769E+00
H    -0.75489860E+00   -0.42085270E+00    0.49256016E-01
           3
Time step:                  10 Sim. Time [au]         200.00
O     0.45168844E-02    0.11250268E+00    0.10913644E-02
H     0.72008434E+00   -0.44614470E+00   -0.40178155E-02
H    -0.77543511E+00   -0.40350723E+00    0.38622628E-02
           3
Time step:                  10 Sim. Time [au]         200.00
O    -0.53396482E-02    0.11319267E+00   -0.13549634E-01
H     0.73116032E+00   -0.45092347E+00    0.13348960E+00
H    -0.70607801E+00   -0.46385120E+00    0.96222552E-01
           3
Time step:                  10 Sim. Time [au]         200.00
O     0.77524684E-03    0.10794950E+00   -0.35860121E-02
H     0.75799804E+00   -0.40867073E+00    0.30920593E-01
H    -0.78570040E+00   -0.37180787E+00    0.72049715E-01
           3
Time step:                  10 Sim. Time [au]         200.00
O    -0.76909688E-03    0.11217016E+00   -0.11413795E-01
H     0.75982000E+00   -0.47260383E+00    0.13824673E+00
H    -0.76492068E+00   -0.41913646E+00    0.53083107E-01
           3
Time step:                  11 Sim. Time [au]         220.00
O     0.57152944E-02    0.11242297E+00   -0.16754786E-03
H     0.71049701E+00   -0.43982165E+00    0.47106594E-02
H    -0.78330210E+00   -0.40521420E+00    0.85612229E-02
           3
Time step:                  11 Sim. Time [au]         220.00
O    -0.65396160E-02    0.11218806E+00   -0.15128188E-01
H     0.73866294E+00   -0.44725680E+00    0.14514507E+00
H    -0.70588246E+00   -0.45311892E+00    0.10101631E+00
           3
Time step:                  11 Sim. Time [au]         220.00
O     0.53608655E-03    0.10808146E+00   -0.48005682E-02
H     0.75434404E+00   -0.40533469E+00    0.40586162E-01
H    -0.78371017E+00   -0.37252956E+00    0.80509757E-01
           3
Time step:                  11 Sim. Time [au]         220.00
O    -0.11445067E-02    0.11228281E+00   -0.12336370E-01
H     0.77141975E+00   -0.47711209E+00    0.14567531E+00
H    -0.77602467E+00   -0.41792295E+00    0.56713127E-01
           3
Time step:                  12 Sim. Time [au]         240.00
O     0.63065344E-02    0.11254052E+00   -0.16450981E-02
H     0.70604313E+00   -0.43691611E+00    0.15039786E-01
H    -0.79056336E+00   -0.40624221E+00    0.14527812E-01
           3
Time step:                  12 Sim. Time [au]         240.00
O    -0.76750317E-02    0.11128879E+00   -0.16697287E-01
H     0.74686252E+00   -0.44178737E+00    0.15558383E+00
H    -0.71072481E+00   -0.44325896E+00    0.10520652E+00
           3
Time step:                  12 Sim. Time [au]         240.00
O     0.13940750E-03    0.10866120E+00   -0.62077063E-02
H     0.75358703E+00   -0.40466661E+00    0.51828270E-01
H    -0.78271925E+00   -0.37622539E+00    0.89571459E-01
           3
Time step:                  12 Sim. Time [au]         240.00
O    -0.14247144E-02    0.11231284E+00   -0.13051650E-01
H     0.78019053E+00   -0.47856958E+00    0.15063052E+00
H    -0.78726787E+00   -0.41572132E+00    0.60309269E-01
           3
Time step:                  13 Sim. Time [au]         260.00
O     0.63301015E-02    0.11286829E+00   -0.32706333E-02
H     0.70743930E+00   -0.43858621E+00    0.27192287E-01
H    -0.79702481E+00   -0.40744656E+00    0.21737097E-01
           3
Time step:                  13 Sim. Time [au]         260.00
O    -0.85877150E-02    0.11053167E+00   -0.18265603E-01
H     0.75484091E+00   -0.43533483E+00    0.16474748E+00
H    -0.72167049E+00   -0.43652619E+00    0.10951062E+00
           3
Time step:                  13 Sim. Time [au]         260.00
O    -0.37669051E-03    0.10970249E+00   -0.78568669E-02
H     0.75553394E+00   -0.40712943E+00    0.64834882E-01
H    -0.78344882E+00   -0.38390351E+00    0.99589815E-01
           3
Time step:                  13 Sim. Time [au]         260.00
O    -0.15780727E-02    0.11214905E+00   -0.13465505E-01
H     0.78508492E+00   -0.47669239E+00    0.15319066E+00
H    -0.79867207E+00   -0.41362114E+00    0.64319345E-01
           3
Time step:                  14 Sim. Time [au]         280.00
O     0.59088220E-02    0.11358284E+00   -0.53199839E-02
H     0.71436770E+00   -0.44495221E+00    0.41282272E-01
H    -0.80136213E+00   -0.40825112E+00    0.30169450E-01
           3
Time step:                  14 Sim. Time [au]         280.00
O    -0.91506158E-02    0.10997998E+00   -0.19939096E-01
H     0.76175696E+00   -0.42797427E+00    0.17228761E+00
H    -0.73705466E+00   -0.43245858E+00    0.11428216E+00
           3
Time step:                  14 Sim. Time [au]         280.00
O    -0.95567921E-03    0.11120761E+00   -0.98343071E-02
H     0.75898376E+00   -0.41216508E+00    0.79324370E-01
H    -0.78499077E+00   -0.39444499E+00    0.11039733E+00
           3
Time step:                  14 Sim. Time [au]         280.00
O    -0.14782311E-02    0.11175163E+00   -0.13749705E-01
H     0.78543053E+00   -0.47157226E+00    0.15337589E+00
H    -0.80867765E+00   -0.41119552E+00    0.68675509E-01
           3
Time step:                  15 Sim. Time [au]         300.00
O     0.50206796E-02    0.11461461E+00   -0.75181096E-02
H     0.72624606E+00   -0.45464676E+00    0.56757350E-01
H    -0.80331065E+00   -0.40735346E+00    0.38903424E-01
           3
Time step:                  15 Sim. Time [au]         300.00
O    -0.96058996E-02    0.10959765E+00   -0.21357689E-01
H     0.76741665E+00   -0.41887816E+00    0.17862273E+00
H    -0.75607481E+00   -0.42942659E+00    0.11891465E+00
           3
Time step:                  15 Sim. Time [au]         300.00
O    -0.16974672E-02    0.11295078E+00   -0.11878813E-01
H     0.76383567E+00   -0.41835934E+00    0.94712257E-01
H    -0.78671046E+00   -0.40600634E+00    0.12102388E+00
           3
Time step:                  15 Sim. Time [au]         300.00
O    -0.12891807E-02    0.11108848E+00   -0.13578035E-01
H     0.78180805E+00   -0.46232207E+00    0.15117669E+00
H    -0.81697621E+00   -0.40738041E+00    0.72760532E-01
           3
Time step:                  16 Sim. Time [au]         320.00
O     0.37628393E-02    0.11588903E+00   -0.10132172E-01
H     0.74032663E+00   -0.46560099E+00    0.72991947E-01
H    -0.80242227E+00   -0.40566567E+00    0.47491758E-01
           3
Time step:                  16 Sim. Time [au]         320.00
O    -0.99876075E-02    0.10938510E+00   -0.22748404E-01
H     0.77126714E+00   -0.40873449E+00    0.18350577E+00
H    -0.77673003E+00   -0.42801248E+00    0.12308187E+00
           3
Time step:                  16 Sim. Time [au]         320.00
O    -0.26220255E-02    0.11468167E+00   -0.14139886E-01
H     0.76874724E+00   -0.42482306E+00    0.11052510E+00
H    -0.78764039E+00   -0.41898575E+00    0.13072822E+00
           3
Time step:                  16 Sim. Time [au]         320.00
O    -0.10988964E-02    0.11012090E+00   -0.13272980E-01
H     0.77460362E+00   -0.45006525E+00    0.14654867E+00
H    -0.82258296E+00   -0.40309824E+00    0.76683494E-01
           3
Time step:                  17 Sim. Time [au]         340.00
O     0.25552435E-02    0.11739751E+00   -0.12959516E-01
H     0.75507305E+00   -0.47656518E+00    0.89862317E-01
H    -0.79873373E+00   -0.40333549E+00    0.56188740E-01
           3
Time step:                  17 Sim. Time [au]         340.00
O    -0.10269677E-01    0.10934301E+00   -0.23952836E-01
H     0.77387021E+00   -0.39816862E+00    0.18753643E+00
H    -0.79658771E+00   -0.42714159E+00    0.12696379E+00
           3
Time step:                  17 Sim. Time [au]         340.00
O    -0.35550675E-02    0.11617215E+00   -0.16463095E-01
H     0.77306461E+00   -0.43076247E+00    0.12677364E+00
H    -0.78694783E+00   -0.43277861E+00    0.13980944E+00
           3
Time step:                  17 Sim. Time [au]         340.00
O    -0.83756964E-03    0.10889745E+00   -0.12743033E-01
H     0.76526566E+00   -0.43636615E+00    0.14058006E+00
H    -0.82491744E+00   -0.39865649E+00    0.80521634E-01
           3
Time step:                  18 Sim. Time [au]         360.00
O     0.13424997E-02    0.11909356E+00   -0.15993042E-01
H     0.76808936E+00   -0.48642486E+00    0.10673893E+00
H    -0.79332165E+00   -0.40033564E+00    0.64928856E-01
           3
Time step:                  18 Sim. Time [au]         360.00
O    -0.10635614E-01    0.10933848E+00   -0.24856201E-01
H     0.77450459E+00   -0.38846237E+00    0.19017903E+00
H    -0.81408246E+00   -0.42591805E+00    0.13083421E+00
           3
Time step:                  18 Sim. Time [au]         360.00
O    -0.46687100E-02    0.11734024E+00   -0.18820940E-01
H     0.77499798E+00   -0.43572665E+00    0.14269786E+00
H    -0.78481223E+00   -0.44620978E+00    0.14766740E+00
           3
Time step:                  18 Sim. Time [au]         360.00
O    -0.87831124E-03    0.10761322E+00   -0.12030090E-01
H     0.75459913E+00   -0.42327880E+00    0.13375904E+00
H    -0.82496881E+00   -0.39401065E+00    0.84787457E-01
           3
Time step:                  19 Sim. Time [au]         380.00
O     0.41420881E-03    0.12060355E+00   -0.19098353E-01
H     0.77839746E+00   -0.49282162E+00    0.12360234E+00
H    -0.78550125E+00   -0.39621711E+00    0.73497061E-01
           3
Time step:                  19 Sim. Time [au]         380.00
O    -0.10980122E-01    0.10910194E+00   -0.25484820E-01
H     0.77435291E+00   -0.37945488E+00    0.19200104E+00
H    -0.82666227E+00   -0.42347606E+00    0.13397112E+00
           3
Time step:                  19 Sim. Time [au]         380.00
O    -0.58958063E-02    0.11796746E+00   -0.21049849E-01
H     0.77450278E+00   -0.43800461E+00    0.15859394E+00
H    -0.77933745E+00   -0.45796907E+00    0.15343004E+00
           3
Time step:                  19 Sim. Time [au]         380.00
O    -0.11584678E-02    0.10618714E+00   -0.11098872E-01
H     0.74516529E+00   -0.41146939E+00    0.12737768E+00
H    -0.82138023E+00   -0.38919679E+00    0.89091296E-01
           3
Time step:                  20 Sim. Time [au]         400.00
O    -0.11886445E-03    0.12189167E+00   -0.22102728E-01
H     0.78381276E+00   -0.49443722E+00    0.13903151E+00
H    -0.77640178E+00   -0.39121713E+00    0.82367077E-01
           3
Time step:                  20 Sim. Time [au]         400.00
O    -0.11426894E-01    0.10856183E+00   -0.25833226E-01
H     0.77275819E+00   -0.37157776E+00    0.19252220E+00
H    -0.83380034E+00   -0.41957329E+00    0.13722101E+00
           3
Time step:                  20 Sim. Time [au]         400.00
O    -0.72944379E-02    0.11797749E+00   -0.23151125E-01
H     0.77010563E+00   -0.43701044E+00    0.17340213E+00
H    -0.77075479E+00   -0.46743879E+00    0.15735351E+00
           3
Time step:                  20 Sim. Time [au]         400.00
O    -0.18051176E-02    0.10476690E+00   -0.99575411E-02
H     0.73730741E+00   -0.40211244E+00    0.12094344E+00
H    -0.81500094E+00   -0.38450100E+00    0.93321323E-01
