           3
Units: angs.;  Time step:           1  ;  Sim. Time [au]:          10.00
O     0.38406641E-04    0.11802619E+00   -0.95105515E-03
H     0.74715396E+00   -0.47131599E+00    0.11559061E-02
H    -0.75340013E+00   -0.47571087E+00    0.15985783E-02
           3
Units: angs.;  Time step:           1  ;  Sim. Time [au]:          10.00
O    -0.53669767E-03    0.11865333E+00   -0.11775314E-02
H     0.75408227E+00   -0.47147158E+00   -0.12412196E-02
H    -0.75539876E+00   -0.47391214E+00   -0.68130708E-04
           3
Units: angs.;  Time step:           1  ;  Sim. Time [au]:          10.00
O     0.31479072E-03    0.11766589E+00    0.53774546E-03
H     0.76981117E+00   -0.47316301E+00    0.24727036E-02
H    -0.76421776E+00   -0.46901612E+00    0.48061900E-02
           3
Units: angs.;  Time step:           1  ;  Sim. Time [au]:          10.00
O    -0.67213220E-03    0.11768177E+00   -0.79821467E-03
H     0.76152594E+00   -0.47345183E+00   -0.66772964E-03
H    -0.74832051E+00   -0.46757757E+00   -0.12174532E-02
           3
Units: angs.;  Time step:           2  ;  Sim. Time [au]:          20.00
O     0.48641429E-03    0.11750610E+00   -0.71473481E-03
H     0.73996892E+00   -0.46409970E+00    0.23800559E-02
H    -0.74763956E+00   -0.47870733E+00    0.72930207E-03
           3
Units: angs.;  Time step:           2  ;  Sim. Time [au]:          20.00
O     0.67189056E-04    0.11940611E+00   -0.27195865E-02
H     0.74942992E+00   -0.46871863E+00   -0.42662267E-02
H    -0.74786424E+00   -0.47373248E+00   -0.17502905E-02
           3
Units: angs.;  Time step:           2  ;  Sim. Time [au]:          20.00
O    -0.24107681E-03    0.11688356E+00   -0.14636418E-03
H     0.78085801E+00   -0.47686843E+00    0.67287510E-02
H    -0.77651083E+00   -0.45935550E+00    0.15770570E-01
           3
Units: angs.;  Time step:           2  ;  Sim. Time [au]:          20.00
O    -0.10399135E-02    0.11930528E+00   -0.14686682E-02
H     0.76449386E+00   -0.48064603E+00   -0.56089484E-03
H    -0.74059819E+00   -0.46651800E+00   -0.21872536E-02
