           3
 Time step:           1
O   0.3672797021E-04  0.1666356896E-04 -0.1687878615E-03
H  -0.1088196687E-02  0.1753350956E-03 -0.2966160607E-03
H   0.1419413426E-03 -0.5736038448E-03 -0.3292012684E-03
O  -0.5672240001E-04  0.1155823017E-03 -0.1014632952E-03
H   0.6644055126E-03 -0.1348585741E-02 -0.1780280916E-03
H   0.3556227340E-03 -0.6190745598E-03 -0.2061305726E-03
O   0.5402118407E-04 -0.1911171676E-03 -0.7656584456E-04
H   0.1155575681E-02  0.1577880478E-02 -0.1368548600E-03
H  -0.1281232965E-02  0.1312362154E-02 -0.1828205147E-03
O   0.8457029516E-04  0.1446208377E-04 -0.9979980838E-04
H  -0.3591809898E-03  0.5662694463E-03 -0.1629522725E-03
H  -0.1682040660E-02 -0.9679550957E-03 -0.1953602232E-03
           3
 Time step:           2
O   0.3382531660E-04  0.2150511053E-04 -0.1587772485E-03
H  -0.1066779477E-02  0.2026522714E-03 -0.3052551867E-03
H   0.1842405717E-03 -0.5164936885E-03 -0.3588719250E-03
O  -0.5146871085E-04  0.1149575586E-03 -0.9578955808E-04
H   0.5830462066E-03 -0.1256057825E-02 -0.1939345460E-03
H   0.3936880069E-03 -0.5517526689E-03 -0.2263122160E-03
O   0.5675052985E-04 -0.1878552972E-03 -0.6951477792E-04
H   0.1121648820E-02  0.1596256325E-02 -0.1550532957E-03
H  -0.1226626276E-02  0.1337650184E-02 -0.2080993221E-03
O   0.7846079382E-04  0.1266501196E-04 -0.9599813427E-04
H  -0.3890848376E-03  0.5797406435E-03 -0.1741998037E-03
H  -0.1587953611E-02 -0.8599406394E-03 -0.2100805435E-03
