           1
Time step:                   1 Sim. Time [au]          20.00
Ki    0.99998026E-01    0.00000000E+00    0.00000000E+00
           1
Time step:                   1 Sim. Time [au]          20.00
Ki    0.99997037E-01    0.00000000E+00    0.00000000E+00
           1
Time step:                   1 Sim. Time [au]          20.00
Ki    0.99996266E-01    0.00000000E+00    0.00000000E+00
           1
Time step:                   1 Sim. Time [au]          20.00
Ki    0.99995718E-01    0.00000000E+00    0.00000000E+00
           1
Time step:                   1 Sim. Time [au]          20.00
Ki    0.99995385E-01    0.00000000E+00    0.00000000E+00
           1
Time step:                   1 Sim. Time [au]          20.00
Ki    0.99995273E-01    0.00000000E+00    0.00000000E+00
           1
Time step:                   1 Sim. Time [au]          20.00
Ki    0.99995384E-01    0.00000000E+00    0.00000000E+00
           1
Time step:                   1 Sim. Time [au]          20.00
Ki    0.99995719E-01    0.00000000E+00    0.00000000E+00
           1
Time step:                   1 Sim. Time [au]          20.00
Ki    0.99996267E-01    0.00000000E+00    0.00000000E+00
           1
Time step:                   1 Sim. Time [au]          20.00
Ki    0.99997037E-01    0.00000000E+00    0.00000000E+00
           1
Time step:                   2 Sim. Time [au]          40.00
Ki    0.99992107E-01    0.00000000E+00    0.00000000E+00
           1
Time step:                   2 Sim. Time [au]          40.00
Ki    0.99988148E-01    0.00000000E+00    0.00000000E+00
           1
Time step:                   2 Sim. Time [au]          40.00
Ki    0.99985057E-01    0.00000000E+00    0.00000000E+00
           1
Time step:                   2 Sim. Time [au]          40.00
Ki    0.99982869E-01    0.00000000E+00    0.00000000E+00
           1
Time step:                   2 Sim. Time [au]          40.00
Ki    0.99981524E-01    0.00000000E+00    0.00000000E+00
           1
Time step:                   2 Sim. Time [au]          40.00
Ki    0.99981074E-01    0.00000000E+00    0.00000000E+00
           1
Time step:                   2 Sim. Time [au]          40.00
Ki    0.99981520E-01    0.00000000E+00    0.00000000E+00
           1
Time step:                   2 Sim. Time [au]          40.00
Ki    0.99982869E-01    0.00000000E+00    0.00000000E+00
           1
Time step:                   2 Sim. Time [au]          40.00
Ki    0.99985061E-01    0.00000000E+00    0.00000000E+00
           1
Time step:                   2 Sim. Time [au]          40.00
Ki    0.99988144E-01    0.00000000E+00    0.00000000E+00
           1
Time step:                   3 Sim. Time [au]          60.00
Ki    0.99981865E-01    0.00000000E+00    0.00000000E+00
           1
Time step:                   3 Sim. Time [au]          60.00
Ki    0.99972949E-01    0.00000000E+00    0.00000000E+00
           1
Time step:                   3 Sim. Time [au]          60.00
Ki    0.99965978E-01    0.00000000E+00    0.00000000E+00
           1
Time step:                   3 Sim. Time [au]          60.00
Ki    0.99961060E-01    0.00000000E+00    0.00000000E+00
           1
Time step:                   3 Sim. Time [au]          60.00
Ki    0.99958007E-01    0.00000000E+00    0.00000000E+00
           1
Time step:                   3 Sim. Time [au]          60.00
Ki    0.99956984E-01    0.00000000E+00    0.00000000E+00
           1
Time step:                   3 Sim. Time [au]          60.00
Ki    0.99957996E-01    0.00000000E+00    0.00000000E+00
           1
Time step:                   3 Sim. Time [au]          60.00
Ki    0.99961062E-01    0.00000000E+00    0.00000000E+00
           1
Time step:                   3 Sim. Time [au]          60.00
Ki    0.99965992E-01    0.00000000E+00    0.00000000E+00
           1
Time step:                   3 Sim. Time [au]          60.00
Ki    0.99972939E-01    0.00000000E+00    0.00000000E+00
           1
Time step:                   4 Sim. Time [au]          80.00
Ki    0.99966055E-01    0.00000000E+00    0.00000000E+00
           1
Time step:                   4 Sim. Time [au]          80.00
Ki    0.99950187E-01    0.00000000E+00    0.00000000E+00
           1
Time step:                   4 Sim. Time [au]          80.00
Ki    0.99937762E-01    0.00000000E+00    0.00000000E+00
           1
Time step:                   4 Sim. Time [au]          80.00
Ki    0.99929030E-01    0.00000000E+00    0.00000000E+00
           1
Time step:                   4 Sim. Time [au]          80.00
Ki    0.99923554E-01    0.00000000E+00    0.00000000E+00
           1
Time step:                   4 Sim. Time [au]          80.00
Ki    0.99921714E-01    0.00000000E+00    0.00000000E+00
           1
Time step:                   4 Sim. Time [au]          80.00
Ki    0.99923527E-01    0.00000000E+00    0.00000000E+00
           1
Time step:                   4 Sim. Time [au]          80.00
Ki    0.99929035E-01    0.00000000E+00    0.00000000E+00
           1
Time step:                   4 Sim. Time [au]          80.00
Ki    0.99937797E-01    0.00000000E+00    0.00000000E+00
           1
Time step:                   4 Sim. Time [au]          80.00
Ki    0.99950165E-01    0.00000000E+00    0.00000000E+00
           1
Time step:                   5 Sim. Time [au]         100.00
Ki    0.99942052E-01    0.00000000E+00    0.00000000E+00
           1
Time step:                   5 Sim. Time [au]         100.00
Ki    0.99917231E-01    0.00000000E+00    0.00000000E+00
           1
Time step:                   5 Sim. Time [au]         100.00
Ki    0.99897763E-01    0.00000000E+00    0.00000000E+00
           1
Time step:                   5 Sim. Time [au]         100.00
Ki    0.99884138E-01    0.00000000E+00    0.00000000E+00
           1
Time step:                   5 Sim. Time [au]         100.00
Ki    0.99875505E-01    0.00000000E+00    0.00000000E+00
           1
Time step:                   5 Sim. Time [au]         100.00
Ki    0.99872599E-01    0.00000000E+00    0.00000000E+00
           1
Time step:                   5 Sim. Time [au]         100.00
Ki    0.99875454E-01    0.00000000E+00    0.00000000E+00
           1
Time step:                   5 Sim. Time [au]         100.00
Ki    0.99884152E-01    0.00000000E+00    0.00000000E+00
           1
Time step:                   5 Sim. Time [au]         100.00
Ki    0.99897837E-01    0.00000000E+00    0.00000000E+00
           1
Time step:                   5 Sim. Time [au]         100.00
Ki    0.99917191E-01    0.00000000E+00    0.00000000E+00
           1
Time step:                   6 Sim. Time [au]         120.00
Ki    0.99904220E-01    0.00000000E+00    0.00000000E+00
           1
Time step:                   6 Sim. Time [au]         120.00
Ki    0.99868435E-01    0.00000000E+00    0.00000000E+00
           1
Time step:                   6 Sim. Time [au]         120.00
Ki    0.99840325E-01    0.00000000E+00    0.00000000E+00
           1
Time step:                   6 Sim. Time [au]         120.00
Ki    0.99820733E-01    0.00000000E+00    0.00000000E+00
           1
Time step:                   6 Sim. Time [au]         120.00
Ki    0.99808189E-01    0.00000000E+00    0.00000000E+00
           1
Time step:                   6 Sim. Time [au]         120.00
Ki    0.99803957E-01    0.00000000E+00    0.00000000E+00
           1
Time step:                   6 Sim. Time [au]         120.00
Ki    0.99808101E-01    0.00000000E+00    0.00000000E+00
           1
Time step:                   6 Sim. Time [au]         120.00
Ki    0.99820761E-01    0.00000000E+00    0.00000000E+00
           1
Time step:                   6 Sim. Time [au]         120.00
Ki    0.99840459E-01    0.00000000E+00    0.00000000E+00
           1
Time step:                   6 Sim. Time [au]         120.00
Ki    0.99868370E-01    0.00000000E+00    0.00000000E+00
           1
Time step:                   7 Sim. Time [au]         140.00
Ki    0.99839900E-01    0.00000000E+00    0.00000000E+00
           1
Time step:                   7 Sim. Time [au]         140.00
Ki    0.99791135E-01    0.00000000E+00    0.00000000E+00
           1
Time step:                   7 Sim. Time [au]         140.00
Ki    0.99752768E-01    0.00000000E+00    0.00000000E+00
           1
Time step:                   7 Sim. Time [au]         140.00
Ki    0.99726141E-01    0.00000000E+00    0.00000000E+00
           1
Time step:                   7 Sim. Time [au]         140.00
Ki    0.99708912E-01    0.00000000E+00    0.00000000E+00
           1
Time step:                   7 Sim. Time [au]         140.00
Ki    0.99703089E-01    0.00000000E+00    0.00000000E+00
           1
Time step:                   7 Sim. Time [au]         140.00
Ki    0.99708775E-01    0.00000000E+00    0.00000000E+00
           1
Time step:                   7 Sim. Time [au]         140.00
Ki    0.99726192E-01    0.00000000E+00    0.00000000E+00
           1
Time step:                   7 Sim. Time [au]         140.00
Ki    0.99752993E-01    0.00000000E+00    0.00000000E+00
           1
Time step:                   7 Sim. Time [au]         140.00
Ki    0.99791039E-01    0.00000000E+00    0.00000000E+00
           1
Time step:                   8 Sim. Time [au]         160.00
Ki    0.99723608E-01    0.00000000E+00    0.00000000E+00
           1
Time step:                   8 Sim. Time [au]         160.00
Ki    0.99659836E-01    0.00000000E+00    0.00000000E+00
           1
Time step:                   8 Sim. Time [au]         160.00
Ki    0.99609584E-01    0.00000000E+00    0.00000000E+00
           1
Time step:                   8 Sim. Time [au]         160.00
Ki    0.99574860E-01    0.00000000E+00    0.00000000E+00
           1
Time step:                   8 Sim. Time [au]         160.00
Ki    0.99552157E-01    0.00000000E+00    0.00000000E+00
           1
Time step:                   8 Sim. Time [au]         160.00
Ki    0.99544466E-01    0.00000000E+00    0.00000000E+00
           1
Time step:                   8 Sim. Time [au]         160.00
Ki    0.99551953E-01    0.00000000E+00    0.00000000E+00
           1
Time step:                   8 Sim. Time [au]         160.00
Ki    0.99574948E-01    0.00000000E+00    0.00000000E+00
           1
Time step:                   8 Sim. Time [au]         160.00
Ki    0.99609939E-01    0.00000000E+00    0.00000000E+00
           1
Time step:                   8 Sim. Time [au]         160.00
Ki    0.99659703E-01    0.00000000E+00    0.00000000E+00
           1
Time step:                   9 Sim. Time [au]         180.00
Ki    0.99520208E-01    0.00000000E+00    0.00000000E+00
           1
Time step:                   9 Sim. Time [au]         180.00
Ki    0.99439395E-01    0.00000000E+00    0.00000000E+00
           1
Time step:                   9 Sim. Time [au]         180.00
Ki    0.99375617E-01    0.00000000E+00    0.00000000E+00
           1
Time step:                   9 Sim. Time [au]         180.00
Ki    0.99331743E-01    0.00000000E+00    0.00000000E+00
           1
Time step:                   9 Sim. Time [au]         180.00
Ki    0.99302755E-01    0.00000000E+00    0.00000000E+00
           1
Time step:                   9 Sim. Time [au]         180.00
Ki    0.99292914E-01    0.00000000E+00    0.00000000E+00
           1
Time step:                   9 Sim. Time [au]         180.00
Ki    0.99302468E-01    0.00000000E+00    0.00000000E+00
           1
Time step:                   9 Sim. Time [au]         180.00
Ki    0.99331885E-01    0.00000000E+00    0.00000000E+00
           1
Time step:                   9 Sim. Time [au]         180.00
Ki    0.99376151E-01    0.00000000E+00    0.00000000E+00
           1
Time step:                   9 Sim. Time [au]         180.00
Ki    0.99439222E-01    0.00000000E+00    0.00000000E+00
           1
Time step:                  10 Sim. Time [au]         200.00
Ki    0.99206074E-01    0.00000000E+00    0.00000000E+00
           1
Time step:                  10 Sim. Time [au]         200.00
Ki    0.99106181E-01    0.00000000E+00    0.00000000E+00
           1
Time step:                  10 Sim. Time [au]         200.00
Ki    0.99027223E-01    0.00000000E+00    0.00000000E+00
           1
Time step:                  10 Sim. Time [au]         200.00
Ki    0.98973154E-01    0.00000000E+00    0.00000000E+00
           1
Time step:                  10 Sim. Time [au]         200.00
Ki    0.98937053E-01    0.00000000E+00    0.00000000E+00
           1
Time step:                  10 Sim. Time [au]         200.00
Ki    0.98924770E-01    0.00000000E+00    0.00000000E+00
           1
Time step:                  10 Sim. Time [au]         200.00
Ki    0.98936663E-01    0.00000000E+00    0.00000000E+00
           1
Time step:                  10 Sim. Time [au]         200.00
Ki    0.98973370E-01    0.00000000E+00    0.00000000E+00
           1
Time step:                  10 Sim. Time [au]         200.00
Ki    0.99027993E-01    0.00000000E+00    0.00000000E+00
           1
Time step:                  10 Sim. Time [au]         200.00
Ki    0.99105963E-01    0.00000000E+00    0.00000000E+00
           1
Time step:                  11 Sim. Time [au]         220.00
Ki    0.98781699E-01    0.00000000E+00    0.00000000E+00
           1
Time step:                  11 Sim. Time [au]         220.00
Ki    0.98660681E-01    0.00000000E+00    0.00000000E+00
           1
Time step:                  11 Sim. Time [au]         220.00
Ki    0.98564879E-01    0.00000000E+00    0.00000000E+00
           1
Time step:                  11 Sim. Time [au]         220.00
Ki    0.98499580E-01    0.00000000E+00    0.00000000E+00
           1
Time step:                  11 Sim. Time [au]         220.00
Ki    0.98455521E-01    0.00000000E+00    0.00000000E+00
           1
Time step:                  11 Sim. Time [au]         220.00
Ki    0.98440497E-01    0.00000000E+00    0.00000000E+00
           1
Time step:                  11 Sim. Time [au]         220.00
Ki    0.98455008E-01    0.00000000E+00    0.00000000E+00
           1
Time step:                  11 Sim. Time [au]         220.00
Ki    0.98499896E-01    0.00000000E+00    0.00000000E+00
           1
Time step:                  11 Sim. Time [au]         220.00
Ki    0.98565956E-01    0.00000000E+00    0.00000000E+00
           1
Time step:                  11 Sim. Time [au]         220.00
Ki    0.98660419E-01    0.00000000E+00    0.00000000E+00
           1
Time step:                  12 Sim. Time [au]         240.00
Ki    0.98265600E-01    0.00000000E+00    0.00000000E+00
           1
Time step:                  12 Sim. Time [au]         240.00
Ki    0.98121408E-01    0.00000000E+00    0.00000000E+00
           1
Time step:                  12 Sim. Time [au]         240.00
Ki    0.98007088E-01    0.00000000E+00    0.00000000E+00
           1
Time step:                  12 Sim. Time [au]         240.00
Ki    0.97929537E-01    0.00000000E+00    0.00000000E+00
           1
Time step:                  12 Sim. Time [au]         240.00
Ki    0.97876659E-01    0.00000000E+00    0.00000000E+00
           1
Time step:                  12 Sim. Time [au]         240.00
Ki    0.97858586E-01    0.00000000E+00    0.00000000E+00
           1
Time step:                  12 Sim. Time [au]         240.00
Ki    0.97875999E-01    0.00000000E+00    0.00000000E+00
           1
Time step:                  12 Sim. Time [au]         240.00
Ki    0.97929985E-01    0.00000000E+00    0.00000000E+00
           1
Time step:                  12 Sim. Time [au]         240.00
Ki    0.98008554E-01    0.00000000E+00    0.00000000E+00
           1
Time step:                  12 Sim. Time [au]         240.00
Ki    0.98121104E-01    0.00000000E+00    0.00000000E+00
           1
Time step:                  13 Sim. Time [au]         260.00
Ki    0.97691005E-01    0.00000000E+00    0.00000000E+00
           1
Time step:                  13 Sim. Time [au]         260.00
Ki    0.97521588E-01    0.00000000E+00    0.00000000E+00
           1
Time step:                  13 Sim. Time [au]         260.00
Ki    0.97387067E-01    0.00000000E+00    0.00000000E+00
           1
Time step:                  13 Sim. Time [au]         260.00
Ki    0.97296255E-01    0.00000000E+00    0.00000000E+00
           1
Time step:                  13 Sim. Time [au]         260.00
Ki    0.97233681E-01    0.00000000E+00    0.00000000E+00
           1
Time step:                  13 Sim. Time [au]         260.00
Ki    0.97212244E-01    0.00000000E+00    0.00000000E+00
           1
Time step:                  13 Sim. Time [au]         260.00
Ki    0.97232852E-01    0.00000000E+00    0.00000000E+00
           1
Time step:                  13 Sim. Time [au]         260.00
Ki    0.97296873E-01    0.00000000E+00    0.00000000E+00
           1
Time step:                  13 Sim. Time [au]         260.00
Ki    0.97389018E-01    0.00000000E+00    0.00000000E+00
           1
Time step:                  13 Sim. Time [au]         260.00
Ki    0.97521247E-01    0.00000000E+00    0.00000000E+00
           1
Time step:                  14 Sim. Time [au]         280.00
Ki    0.97102861E-01    0.00000000E+00    0.00000000E+00
           1
Time step:                  14 Sim. Time [au]         280.00
Ki    0.96906166E-01    0.00000000E+00    0.00000000E+00
           1
Time step:                  14 Sim. Time [au]         280.00
Ki    0.96749754E-01    0.00000000E+00    0.00000000E+00
           1
Time step:                  14 Sim. Time [au]         280.00
Ki    0.96644686E-01    0.00000000E+00    0.00000000E+00
           1
Time step:                  14 Sim. Time [au]         280.00
Ki    0.96571524E-01    0.00000000E+00    0.00000000E+00
           1
Time step:                  14 Sim. Time [au]         280.00
Ki    0.96546400E-01    0.00000000E+00    0.00000000E+00
           1
Time step:                  14 Sim. Time [au]         280.00
Ki    0.96570500E-01    0.00000000E+00    0.00000000E+00
           1
Time step:                  14 Sim. Time [au]         280.00
Ki    0.96645519E-01    0.00000000E+00    0.00000000E+00
           1
Time step:                  14 Sim. Time [au]         280.00
Ki    0.96752302E-01    0.00000000E+00    0.00000000E+00
           1
Time step:                  14 Sim. Time [au]         280.00
Ki    0.96905798E-01    0.00000000E+00    0.00000000E+00
           1
Time step:                  15 Sim. Time [au]         300.00
Ki    0.96545711E-01    0.00000000E+00    0.00000000E+00
           1
Time step:                  15 Sim. Time [au]         300.00
Ki    0.96319685E-01    0.00000000E+00    0.00000000E+00
           1
Time step:                  15 Sim. Time [au]         300.00
Ki    0.96139681E-01    0.00000000E+00    0.00000000E+00
           1
Time step:                  15 Sim. Time [au]         300.00
Ki    0.96019379E-01    0.00000000E+00    0.00000000E+00
           1
Time step:                  15 Sim. Time [au]         300.00
Ki    0.95934721E-01    0.00000000E+00    0.00000000E+00
           1
Time step:                  15 Sim. Time [au]         300.00
Ki    0.95905580E-01    0.00000000E+00    0.00000000E+00
           1
Time step:                  15 Sim. Time [au]         300.00
Ki    0.95933478E-01    0.00000000E+00    0.00000000E+00
           1
Time step:                  15 Sim. Time [au]         300.00
Ki    0.96020478E-01    0.00000000E+00    0.00000000E+00
           1
Time step:                  15 Sim. Time [au]         300.00
Ki    0.96142952E-01    0.00000000E+00    0.00000000E+00
           1
Time step:                  15 Sim. Time [au]         300.00
Ki    0.96319303E-01    0.00000000E+00    0.00000000E+00
           1
Time step:                  16 Sim. Time [au]         320.00
Ki    0.96049737E-01    0.00000000E+00    0.00000000E+00
           1
Time step:                  16 Sim. Time [au]         320.00
Ki    0.95792324E-01    0.00000000E+00    0.00000000E+00
           1
Time step:                  16 Sim. Time [au]         320.00
Ki    0.95587021E-01    0.00000000E+00    0.00000000E+00
           1
Time step:                  16 Sim. Time [au]         320.00
Ki    0.95450520E-01    0.00000000E+00    0.00000000E+00
           1
Time step:                  16 Sim. Time [au]         320.00
Ki    0.95353444E-01    0.00000000E+00    0.00000000E+00
           1
Time step:                  16 Sim. Time [au]         320.00
Ki    0.95319946E-01    0.00000000E+00    0.00000000E+00
           1
Time step:                  16 Sim. Time [au]         320.00
Ki    0.95351954E-01    0.00000000E+00    0.00000000E+00
           1
Time step:                  16 Sim. Time [au]         320.00
Ki    0.95451944E-01    0.00000000E+00    0.00000000E+00
           1
Time step:                  16 Sim. Time [au]         320.00
Ki    0.95591157E-01    0.00000000E+00    0.00000000E+00
           1
Time step:                  16 Sim. Time [au]         320.00
Ki    0.95791946E-01    0.00000000E+00    0.00000000E+00
           1
Time step:                  17 Sim. Time [au]         340.00
Ki    0.95627281E-01    0.00000000E+00    0.00000000E+00
           1
Time step:                  17 Sim. Time [au]         340.00
Ki    0.95336418E-01    0.00000000E+00    0.00000000E+00
           1
Time step:                  17 Sim. Time [au]         340.00
Ki    0.95104097E-01    0.00000000E+00    0.00000000E+00
           1
Time step:                  17 Sim. Time [au]         340.00
Ki    0.94950449E-01    0.00000000E+00    0.00000000E+00
           1
Time step:                  17 Sim. Time [au]         340.00
Ki    0.94840018E-01    0.00000000E+00    0.00000000E+00
           1
Time step:                  17 Sim. Time [au]         340.00
Ki    0.94801815E-01    0.00000000E+00    0.00000000E+00
           1
Time step:                  17 Sim. Time [au]         340.00
Ki    0.94838254E-01    0.00000000E+00    0.00000000E+00
           1
Time step:                  17 Sim. Time [au]         340.00
Ki    0.94952266E-01    0.00000000E+00    0.00000000E+00
           1
Time step:                  17 Sim. Time [au]         340.00
Ki    0.95109260E-01    0.00000000E+00    0.00000000E+00
           1
Time step:                  17 Sim. Time [au]         340.00
Ki    0.95336070E-01    0.00000000E+00    0.00000000E+00
           1
Time step:                  18 Sim. Time [au]         360.00
Ki    0.95280269E-01    0.00000000E+00    0.00000000E+00
           1
Time step:                  18 Sim. Time [au]         360.00
Ki    0.94953889E-01    0.00000000E+00    0.00000000E+00
           1
Time step:                  18 Sim. Time [au]         360.00
Ki    0.94692818E-01    0.00000000E+00    0.00000000E+00
           1
Time step:                  18 Sim. Time [au]         360.00
Ki    0.94521089E-01    0.00000000E+00    0.00000000E+00
           1
Time step:                  18 Sim. Time [au]         360.00
Ki    0.94396348E-01    0.00000000E+00    0.00000000E+00
           1
Time step:                  18 Sim. Time [au]         360.00
Ki    0.94353087E-01    0.00000000E+00    0.00000000E+00
           1
Time step:                  18 Sim. Time [au]         360.00
Ki    0.94394285E-01    0.00000000E+00    0.00000000E+00
           1
Time step:                  18 Sim. Time [au]         360.00
Ki    0.94523375E-01    0.00000000E+00    0.00000000E+00
           1
Time step:                  18 Sim. Time [au]         360.00
Ki    0.94699189E-01    0.00000000E+00    0.00000000E+00
           1
Time step:                  18 Sim. Time [au]         360.00
Ki    0.94953600E-01    0.00000000E+00    0.00000000E+00
           1
Time step:                  19 Sim. Time [au]         380.00
Ki    0.95011166E-01    0.00000000E+00    0.00000000E+00
           1
Time step:                  19 Sim. Time [au]         380.00
Ki    0.94647192E-01    0.00000000E+00    0.00000000E+00
           1
Time step:                  19 Sim. Time [au]         380.00
Ki    0.94355627E-01    0.00000000E+00    0.00000000E+00
           1
Time step:                  19 Sim. Time [au]         380.00
Ki    0.94164897E-01    0.00000000E+00    0.00000000E+00
           1
Time step:                  19 Sim. Time [au]         380.00
Ki    0.94024877E-01    0.00000000E+00    0.00000000E+00
           1
Time step:                  19 Sim. Time [au]         380.00
Ki    0.93976192E-01    0.00000000E+00    0.00000000E+00
           1
Time step:                  19 Sim. Time [au]         380.00
Ki    0.94022486E-01    0.00000000E+00    0.00000000E+00
           1
Time step:                  19 Sim. Time [au]         380.00
Ki    0.94167738E-01    0.00000000E+00    0.00000000E+00
           1
Time step:                  19 Sim. Time [au]         380.00
Ki    0.94363405E-01    0.00000000E+00    0.00000000E+00
           1
Time step:                  19 Sim. Time [au]         380.00
Ki    0.94646998E-01    0.00000000E+00    0.00000000E+00
           1
Time step:                  20 Sim. Time [au]         400.00
Ki    0.94827625E-01    0.00000000E+00    0.00000000E+00
           1
Time step:                  20 Sim. Time [au]         400.00
Ki    0.94423969E-01    0.00000000E+00    0.00000000E+00
           1
Time step:                  20 Sim. Time [au]         400.00
Ki    0.94100150E-01    0.00000000E+00    0.00000000E+00
           1
Time step:                  20 Sim. Time [au]         400.00
Ki    0.93889514E-01    0.00000000E+00    0.00000000E+00
           1
Time step:                  20 Sim. Time [au]         400.00
Ki    0.93733228E-01    0.00000000E+00    0.00000000E+00
           1
Time step:                  20 Sim. Time [au]         400.00
Ki    0.93678745E-01    0.00000000E+00    0.00000000E+00
           1
Time step:                  20 Sim. Time [au]         400.00
Ki    0.93730482E-01    0.00000000E+00    0.00000000E+00
           1
Time step:                  20 Sim. Time [au]         400.00
Ki    0.93893005E-01    0.00000000E+00    0.00000000E+00
           1
Time step:                  20 Sim. Time [au]         400.00
Ki    0.94109558E-01    0.00000000E+00    0.00000000E+00
           1
Time step:                  20 Sim. Time [au]         400.00
Ki    0.94423914E-01    0.00000000E+00    0.00000000E+00
