           1
 Time step:           1
Ki  0.9999802604E-01  0.0000000000E+00  0.0000000000E+00
           1
 Time step:           1
Ki  0.9999703715E-01  0.0000000000E+00  0.0000000000E+00
           1
 Time step:           1
Ki  0.9999626612E-01  0.0000000000E+00  0.0000000000E+00
           1
 Time step:           1
Ki  0.9999571849E-01  0.0000000000E+00  0.0000000000E+00
           1
 Time step:           1
Ki  0.9999538468E-01  0.0000000000E+00  0.0000000000E+00
           1
 Time step:           1
Ki  0.9999527310E-01  0.0000000000E+00  0.0000000000E+00
           1
 Time step:           1
Ki  0.9999538406E-01  0.0000000000E+00  0.0000000000E+00
           1
 Time step:           1
Ki  0.9999571853E-01  0.0000000000E+00  0.0000000000E+00
           1
 Time step:           1
Ki  0.9999626675E-01  0.0000000000E+00  0.0000000000E+00
           1
 Time step:           1
Ki  0.9999703657E-01  0.0000000000E+00  0.0000000000E+00
           1
 Time step:           2
Ki  0.9999210652E-01  0.0000000000E+00  0.0000000000E+00
           1
 Time step:           2
Ki  0.9998814779E-01  0.0000000000E+00  0.0000000000E+00
           1
 Time step:           2
Ki  0.9998505727E-01  0.0000000000E+00  0.0000000000E+00
           1
 Time step:           2
Ki  0.9998286884E-01  0.0000000000E+00  0.0000000000E+00
           1
 Time step:           2
Ki  0.9998152388E-01  0.0000000000E+00  0.0000000000E+00
           1
 Time step:           2
Ki  0.9998107366E-01  0.0000000000E+00  0.0000000000E+00
           1
 Time step:           2
Ki  0.9998152018E-01  0.0000000000E+00  0.0000000000E+00
           1
 Time step:           2
Ki  0.9998286924E-01  0.0000000000E+00  0.0000000000E+00
           1
 Time step:           2
Ki  0.9998506145E-01  0.0000000000E+00  0.0000000000E+00
           1
 Time step:           2
Ki  0.9998814443E-01  0.0000000000E+00  0.0000000000E+00
           1
 Time step:           3
Ki  0.9998186522E-01  0.0000000000E+00  0.0000000000E+00
           1
 Time step:           3
Ki  0.9997294920E-01  0.0000000000E+00  0.0000000000E+00
           1
 Time step:           3
Ki  0.9996597808E-01  0.0000000000E+00  0.0000000000E+00
           1
 Time step:           3
Ki  0.9996105998E-01  0.0000000000E+00  0.0000000000E+00
           1
 Time step:           3
Ki  0.9995800746E-01  0.0000000000E+00  0.0000000000E+00
           1
 Time step:           3
Ki  0.9995698381E-01  0.0000000000E+00  0.0000000000E+00
           1
 Time step:           3
Ki  0.9995799580E-01  0.0000000000E+00  0.0000000000E+00
           1
 Time step:           3
Ki  0.9996106182E-01  0.0000000000E+00  0.0000000000E+00
           1
 Time step:           3
Ki  0.9996599237E-01  0.0000000000E+00  0.0000000000E+00
           1
 Time step:           3
Ki  0.9997293909E-01  0.0000000000E+00  0.0000000000E+00
           1
 Time step:           4
Ki  0.9996605501E-01  0.0000000000E+00  0.0000000000E+00
           1
 Time step:           4
Ki  0.9995018731E-01  0.0000000000E+00  0.0000000000E+00
           1
 Time step:           4
Ki  0.9993776155E-01  0.0000000000E+00  0.0000000000E+00
           1
 Time step:           4
Ki  0.9992902952E-01  0.0000000000E+00  0.0000000000E+00
           1
 Time step:           4
Ki  0.9992355395E-01  0.0000000000E+00  0.0000000000E+00
           1
 Time step:           4
Ki  0.9992171426E-01  0.0000000000E+00  0.0000000000E+00
           1
 Time step:           4
Ki  0.9992352711E-01  0.0000000000E+00  0.0000000000E+00
           1
 Time step:           4
Ki  0.9992903515E-01  0.0000000000E+00  0.0000000000E+00
           1
 Time step:           4
Ki  0.9993779709E-01  0.0000000000E+00  0.0000000000E+00
           1
 Time step:           4
Ki  0.9995016515E-01  0.0000000000E+00  0.0000000000E+00
           1
 Time step:           5
Ki  0.9994205229E-01  0.0000000000E+00  0.0000000000E+00
           1
 Time step:           5
Ki  0.9991723111E-01  0.0000000000E+00  0.0000000000E+00
           1
 Time step:           5
Ki  0.9989776345E-01  0.0000000000E+00  0.0000000000E+00
           1
 Time step:           5
Ki  0.9988413823E-01  0.0000000000E+00  0.0000000000E+00
           1
 Time step:           5
Ki  0.9987550506E-01  0.0000000000E+00  0.0000000000E+00
           1
 Time step:           5
Ki  0.9987259874E-01  0.0000000000E+00  0.0000000000E+00
           1
 Time step:           5
Ki  0.9987545356E-01  0.0000000000E+00  0.0000000000E+00
           1
 Time step:           5
Ki  0.9988415180E-01  0.0000000000E+00  0.0000000000E+00
           1
 Time step:           5
Ki  0.9989783682E-01  0.0000000000E+00  0.0000000000E+00
           1
 Time step:           5
Ki  0.9991719077E-01  0.0000000000E+00  0.0000000000E+00
           1
 Time step:           6
Ki  0.9990421969E-01  0.0000000000E+00  0.0000000000E+00
           1
 Time step:           6
Ki  0.9986843541E-01  0.0000000000E+00  0.0000000000E+00
           1
 Time step:           6
Ki  0.9984032513E-01  0.0000000000E+00  0.0000000000E+00
           1
 Time step:           6
Ki  0.9982073288E-01  0.0000000000E+00  0.0000000000E+00
           1
 Time step:           6
Ki  0.9980818852E-01  0.0000000000E+00  0.0000000000E+00
           1
 Time step:           6
Ki  0.9980395692E-01  0.0000000000E+00  0.0000000000E+00
           1
 Time step:           6
Ki  0.9980810070E-01  0.0000000000E+00  0.0000000000E+00
           1
 Time step:           6
Ki  0.9982076086E-01  0.0000000000E+00  0.0000000000E+00
           1
 Time step:           6
Ki  0.9984045936E-01  0.0000000000E+00  0.0000000000E+00
           1
 Time step:           6
Ki  0.9986837042E-01  0.0000000000E+00  0.0000000000E+00
           1
 Time step:           7
Ki  0.9983990014E-01  0.0000000000E+00  0.0000000000E+00
           1
 Time step:           7
Ki  0.9979113503E-01  0.0000000000E+00  0.0000000000E+00
           1
 Time step:           7
Ki  0.9975276779E-01  0.0000000000E+00  0.0000000000E+00
           1
 Time step:           7
Ki  0.9972614057E-01  0.0000000000E+00  0.0000000000E+00
           1
 Time step:           7
Ki  0.9970891244E-01  0.0000000000E+00  0.0000000000E+00
           1
 Time step:           7
Ki  0.9970308879E-01  0.0000000000E+00  0.0000000000E+00
           1
 Time step:           7
Ki  0.9970877456E-01  0.0000000000E+00  0.0000000000E+00
           1
 Time step:           7
Ki  0.9972619229E-01  0.0000000000E+00  0.0000000000E+00
           1
 Time step:           7
Ki  0.9975299328E-01  0.0000000000E+00  0.0000000000E+00
           1
 Time step:           7
Ki  0.9979103909E-01  0.0000000000E+00  0.0000000000E+00
           1
 Time step:           8
Ki  0.9972360787E-01  0.0000000000E+00  0.0000000000E+00
           1
 Time step:           8
Ki  0.9965983603E-01  0.0000000000E+00  0.0000000000E+00
           1
 Time step:           8
Ki  0.9960958387E-01  0.0000000000E+00  0.0000000000E+00
           1
 Time step:           8
Ki  0.9957486031E-01  0.0000000000E+00  0.0000000000E+00
           1
 Time step:           8
Ki  0.9955215700E-01  0.0000000000E+00  0.0000000000E+00
           1
 Time step:           8
Ki  0.9954446627E-01  0.0000000000E+00  0.0000000000E+00
           1
 Time step:           8
Ki  0.9955195335E-01  0.0000000000E+00  0.0000000000E+00
           1
 Time step:           8
Ki  0.9957494848E-01  0.0000000000E+00  0.0000000000E+00
           1
 Time step:           8
Ki  0.9960993938E-01  0.0000000000E+00  0.0000000000E+00
           1
 Time step:           8
Ki  0.9965970348E-01  0.0000000000E+00  0.0000000000E+00
           1
 Time step:           9
Ki  0.9952020762E-01  0.0000000000E+00  0.0000000000E+00
           1
 Time step:           9
Ki  0.9943939542E-01  0.0000000000E+00  0.0000000000E+00
           1
 Time step:           9
Ki  0.9937561718E-01  0.0000000000E+00  0.0000000000E+00
           1
 Time step:           9
Ki  0.9933174340E-01  0.0000000000E+00  0.0000000000E+00
           1
 Time step:           9
Ki  0.9930275504E-01  0.0000000000E+00  0.0000000000E+00
           1
 Time step:           9
Ki  0.9929291396E-01  0.0000000000E+00  0.0000000000E+00
           1
 Time step:           9
Ki  0.9930246802E-01  0.0000000000E+00  0.0000000000E+00
           1
 Time step:           9
Ki  0.9933188468E-01  0.0000000000E+00  0.0000000000E+00
           1
 Time step:           9
Ki  0.9937615084E-01  0.0000000000E+00  0.0000000000E+00
           1
 Time step:           9
Ki  0.9943922179E-01  0.0000000000E+00  0.0000000000E+00
           1
 Time step:          10
Ki  0.9920607361E-01  0.0000000000E+00  0.0000000000E+00
           1
 Time step:          10
Ki  0.9910618085E-01  0.0000000000E+00  0.0000000000E+00
           1
 Time step:          10
Ki  0.9902722307E-01  0.0000000000E+00  0.0000000000E+00
           1
 Time step:          10
Ki  0.9897315406E-01  0.0000000000E+00  0.0000000000E+00
           1
 Time step:          10
Ki  0.9893705285E-01  0.0000000000E+00  0.0000000000E+00
           1
 Time step:          10
Ki  0.9892476998E-01  0.0000000000E+00  0.0000000000E+00
           1
 Time step:          10
Ki  0.9893666313E-01  0.0000000000E+00  0.0000000000E+00
           1
 Time step:          10
Ki  0.9897336957E-01  0.0000000000E+00  0.0000000000E+00
           1
 Time step:          10
Ki  0.9902799343E-01  0.0000000000E+00  0.0000000000E+00
           1
 Time step:          10
Ki  0.9910596336E-01  0.0000000000E+00  0.0000000000E+00
           1
 Time step:          11
Ki  0.9878169918E-01  0.0000000000E+00  0.0000000000E+00
           1
 Time step:          11
Ki  0.9866068069E-01  0.0000000000E+00  0.0000000000E+00
           1
 Time step:          11
Ki  0.9856487894E-01  0.0000000000E+00  0.0000000000E+00
           1
 Time step:          11
Ki  0.9849958017E-01  0.0000000000E+00  0.0000000000E+00
           1
 Time step:          11
Ki  0.9845552115E-01  0.0000000000E+00  0.0000000000E+00
           1
 Time step:          11
Ki  0.9844049701E-01  0.0000000000E+00  0.0000000000E+00
           1
 Time step:          11
Ki  0.9845500782E-01  0.0000000000E+00  0.0000000000E+00
           1
 Time step:          11
Ki  0.9849989605E-01  0.0000000000E+00  0.0000000000E+00
           1
 Time step:          11
Ki  0.9856595600E-01  0.0000000000E+00  0.0000000000E+00
           1
 Time step:          11
Ki  0.9866041878E-01  0.0000000000E+00  0.0000000000E+00
           1
 Time step:          12
Ki  0.9826560041E-01  0.0000000000E+00  0.0000000000E+00
           1
 Time step:          12
Ki  0.9812140765E-01  0.0000000000E+00  0.0000000000E+00
           1
 Time step:          12
Ki  0.9800708781E-01  0.0000000000E+00  0.0000000000E+00
           1
 Time step:          12
Ki  0.9792953683E-01  0.0000000000E+00  0.0000000000E+00
           1
 Time step:          12
Ki  0.9787665870E-01  0.0000000000E+00  0.0000000000E+00
           1
 Time step:          12
Ki  0.9785858586E-01  0.0000000000E+00  0.0000000000E+00
           1
 Time step:          12
Ki  0.9787599938E-01  0.0000000000E+00  0.0000000000E+00
           1
 Time step:          12
Ki  0.9792998479E-01  0.0000000000E+00  0.0000000000E+00
           1
 Time step:          12
Ki  0.9800855408E-01  0.0000000000E+00  0.0000000000E+00
           1
 Time step:          12
Ki  0.9812110351E-01  0.0000000000E+00  0.0000000000E+00
           1
 Time step:          13
Ki  0.9769100523E-01  0.0000000000E+00  0.0000000000E+00
           1
 Time step:          13
Ki  0.9752158756E-01  0.0000000000E+00  0.0000000000E+00
           1
 Time step:          13
Ki  0.9738706686E-01  0.0000000000E+00  0.0000000000E+00
           1
 Time step:          13
Ki  0.9729625475E-01  0.0000000000E+00  0.0000000000E+00
           1
 Time step:          13
Ki  0.9723368051E-01  0.0000000000E+00  0.0000000000E+00
           1
 Time step:          13
Ki  0.9721224374E-01  0.0000000000E+00  0.0000000000E+00
           1
 Time step:          13
Ki  0.9723285155E-01  0.0000000000E+00  0.0000000000E+00
           1
 Time step:          13
Ki  0.9729687262E-01  0.0000000000E+00  0.0000000000E+00
           1
 Time step:          13
Ki  0.9738901844E-01  0.0000000000E+00  0.0000000000E+00
           1
 Time step:          13
Ki  0.9752124668E-01  0.0000000000E+00  0.0000000000E+00
           1
 Time step:          14
Ki  0.9710286112E-01  0.0000000000E+00  0.0000000000E+00
           1
 Time step:          14
Ki  0.9690616641E-01  0.0000000000E+00  0.0000000000E+00
           1
 Time step:          14
Ki  0.9674975393E-01  0.0000000000E+00  0.0000000000E+00
           1
 Time step:          14
Ki  0.9664468637E-01  0.0000000000E+00  0.0000000000E+00
           1
 Time step:          14
Ki  0.9657152380E-01  0.0000000000E+00  0.0000000000E+00
           1
 Time step:          14
Ki  0.9654640008E-01  0.0000000000E+00  0.0000000000E+00
           1
 Time step:          14
Ki  0.9657050043E-01  0.0000000000E+00  0.0000000000E+00
           1
 Time step:          14
Ki  0.9664551861E-01  0.0000000000E+00  0.0000000000E+00
           1
 Time step:          14
Ki  0.9675230155E-01  0.0000000000E+00  0.0000000000E+00
           1
 Time step:          14
Ki  0.9690579811E-01  0.0000000000E+00  0.0000000000E+00
           1
 Time step:          15
Ki  0.9654571065E-01  0.0000000000E+00  0.0000000000E+00
           1
 Time step:          15
Ki  0.9631968500E-01  0.0000000000E+00  0.0000000000E+00
           1
 Time step:          15
Ki  0.9613968149E-01  0.0000000000E+00  0.0000000000E+00
           1
 Time step:          15
Ki  0.9601937936E-01  0.0000000000E+00  0.0000000000E+00
           1
 Time step:          15
Ki  0.9593472123E-01  0.0000000000E+00  0.0000000000E+00
           1
 Time step:          15
Ki  0.9590557968E-01  0.0000000000E+00  0.0000000000E+00
           1
 Time step:          15
Ki  0.9593347776E-01  0.0000000000E+00  0.0000000000E+00
           1
 Time step:          15
Ki  0.9602047760E-01  0.0000000000E+00  0.0000000000E+00
           1
 Time step:          15
Ki  0.9614295163E-01  0.0000000000E+00  0.0000000000E+00
           1
 Time step:          15
Ki  0.9631930296E-01  0.0000000000E+00  0.0000000000E+00
           1
 Time step:          16
Ki  0.9604973706E-01  0.0000000000E+00  0.0000000000E+00
           1
 Time step:          16
Ki  0.9579232363E-01  0.0000000000E+00  0.0000000000E+00
           1
 Time step:          16
Ki  0.9558702068E-01  0.0000000000E+00  0.0000000000E+00
           1
 Time step:          16
Ki  0.9545052014E-01  0.0000000000E+00  0.0000000000E+00
           1
 Time step:          16
Ki  0.9535344409E-01  0.0000000000E+00  0.0000000000E+00
           1
 Time step:          16
Ki  0.9531994583E-01  0.0000000000E+00  0.0000000000E+00
           1
 Time step:          16
Ki  0.9535195414E-01  0.0000000000E+00  0.0000000000E+00
           1
 Time step:          16
Ki  0.9545194375E-01  0.0000000000E+00  0.0000000000E+00
           1
 Time step:          16
Ki  0.9559115665E-01  0.0000000000E+00  0.0000000000E+00
           1
 Time step:          16
Ki  0.9579194647E-01  0.0000000000E+00  0.0000000000E+00
           1
 Time step:          17
Ki  0.9562728106E-01  0.0000000000E+00  0.0000000000E+00
           1
 Time step:          17
Ki  0.9533641834E-01  0.0000000000E+00  0.0000000000E+00
           1
 Time step:          17
Ki  0.9510409702E-01  0.0000000000E+00  0.0000000000E+00
           1
 Time step:          17
Ki  0.9495044931E-01  0.0000000000E+00  0.0000000000E+00
           1
 Time step:          17
Ki  0.9484001757E-01  0.0000000000E+00  0.0000000000E+00
           1
 Time step:          17
Ki  0.9480181545E-01  0.0000000000E+00  0.0000000000E+00
           1
 Time step:          17
Ki  0.9483825424E-01  0.0000000000E+00  0.0000000000E+00
           1
 Time step:          17
Ki  0.9495226589E-01  0.0000000000E+00  0.0000000000E+00
           1
 Time step:          17
Ki  0.9510926005E-01  0.0000000000E+00  0.0000000000E+00
           1
 Time step:          17
Ki  0.9533607012E-01  0.0000000000E+00  0.0000000000E+00
           1
 Time step:          18
Ki  0.9528026919E-01  0.0000000000E+00  0.0000000000E+00
           1
 Time step:          18
Ki  0.9495388900E-01  0.0000000000E+00  0.0000000000E+00
           1
 Time step:          18
Ki  0.9469281832E-01  0.0000000000E+00  0.0000000000E+00
           1
 Time step:          18
Ki  0.9452108944E-01  0.0000000000E+00  0.0000000000E+00
           1
 Time step:          18
Ki  0.9439634838E-01  0.0000000000E+00  0.0000000000E+00
           1
 Time step:          18
Ki  0.9435308677E-01  0.0000000000E+00  0.0000000000E+00
           1
 Time step:          18
Ki  0.9439428451E-01  0.0000000000E+00  0.0000000000E+00
           1
 Time step:          18
Ki  0.9452337535E-01  0.0000000000E+00  0.0000000000E+00
           1
 Time step:          18
Ki  0.9469918866E-01  0.0000000000E+00  0.0000000000E+00
           1
 Time step:          18
Ki  0.9495359976E-01  0.0000000000E+00  0.0000000000E+00
           1
 Time step:          19
Ki  0.9501116625E-01  0.0000000000E+00  0.0000000000E+00
           1
 Time step:          19
Ki  0.9464719174E-01  0.0000000000E+00  0.0000000000E+00
           1
 Time step:          19
Ki  0.9435562709E-01  0.0000000000E+00  0.0000000000E+00
           1
 Time step:          19
Ki  0.9416489740E-01  0.0000000000E+00  0.0000000000E+00
           1
 Time step:          19
Ki  0.9402487716E-01  0.0000000000E+00  0.0000000000E+00
           1
 Time step:          19
Ki  0.9397619165E-01  0.0000000000E+00  0.0000000000E+00
           1
 Time step:          19
Ki  0.9402248555E-01  0.0000000000E+00  0.0000000000E+00
           1
 Time step:          19
Ki  0.9416773829E-01  0.0000000000E+00  0.0000000000E+00
           1
 Time step:          19
Ki  0.9436340513E-01  0.0000000000E+00  0.0000000000E+00
           1
 Time step:          19
Ki  0.9464699806E-01  0.0000000000E+00  0.0000000000E+00
           1
 Time step:          20
Ki  0.9482762520E-01  0.0000000000E+00  0.0000000000E+00
           1
 Time step:          20
Ki  0.9442396871E-01  0.0000000000E+00  0.0000000000E+00
           1
 Time step:          20
Ki  0.9410015023E-01  0.0000000000E+00  0.0000000000E+00
           1
 Time step:          20
Ki  0.9388951412E-01  0.0000000000E+00  0.0000000000E+00
           1
 Time step:          20
Ki  0.9373322813E-01  0.0000000000E+00  0.0000000000E+00
           1
 Time step:          20
Ki  0.9367874523E-01  0.0000000000E+00  0.0000000000E+00
           1
 Time step:          20
Ki  0.9373048179E-01  0.0000000000E+00  0.0000000000E+00
           1
 Time step:          20
Ki  0.9389300543E-01  0.0000000000E+00  0.0000000000E+00
           1
 Time step:          20
Ki  0.9410955761E-01  0.0000000000E+00  0.0000000000E+00
           1
 Time step:          20
Ki  0.9442391423E-01  0.0000000000E+00  0.0000000000E+00
