           1
     Units: angs.;  Time step:           1  ;  Sim. Time [au]:          20.00
Ki    0.99998026E-01    0.00000000E+00    0.00000000E+00
           1
     Units: angs.;  Time step:           1  ;  Sim. Time [au]:          20.00
Ki    0.99997037E-01    0.00000000E+00    0.00000000E+00
           1
     Units: angs.;  Time step:           1  ;  Sim. Time [au]:          20.00
Ki    0.99996266E-01    0.00000000E+00    0.00000000E+00
           1
     Units: angs.;  Time step:           1  ;  Sim. Time [au]:          20.00
Ki    0.99995718E-01    0.00000000E+00    0.00000000E+00
           1
     Units: angs.;  Time step:           1  ;  Sim. Time [au]:          20.00
Ki    0.99995385E-01    0.00000000E+00    0.00000000E+00
           1
     Units: angs.;  Time step:           1  ;  Sim. Time [au]:          20.00
Ki    0.99995273E-01    0.00000000E+00    0.00000000E+00
           1
     Units: angs.;  Time step:           1  ;  Sim. Time [au]:          20.00
Ki    0.99995384E-01    0.00000000E+00    0.00000000E+00
           1
     Units: angs.;  Time step:           1  ;  Sim. Time [au]:          20.00
Ki    0.99995719E-01    0.00000000E+00    0.00000000E+00
           1
     Units: angs.;  Time step:           1  ;  Sim. Time [au]:          20.00
Ki    0.99996267E-01    0.00000000E+00    0.00000000E+00
           1
     Units: angs.;  Time step:           1  ;  Sim. Time [au]:          20.00
Ki    0.99997037E-01    0.00000000E+00    0.00000000E+00
           1
     Units: angs.;  Time step:           2  ;  Sim. Time [au]:          40.00
Ki    0.99992107E-01    0.00000000E+00    0.00000000E+00
           1
     Units: angs.;  Time step:           2  ;  Sim. Time [au]:          40.00
Ki    0.99988148E-01    0.00000000E+00    0.00000000E+00
           1
     Units: angs.;  Time step:           2  ;  Sim. Time [au]:          40.00
Ki    0.99985057E-01    0.00000000E+00    0.00000000E+00
           1
     Units: angs.;  Time step:           2  ;  Sim. Time [au]:          40.00
Ki    0.99982869E-01    0.00000000E+00    0.00000000E+00
           1
     Units: angs.;  Time step:           2  ;  Sim. Time [au]:          40.00
Ki    0.99981524E-01    0.00000000E+00    0.00000000E+00
           1
     Units: angs.;  Time step:           2  ;  Sim. Time [au]:          40.00
Ki    0.99981074E-01    0.00000000E+00    0.00000000E+00
           1
     Units: angs.;  Time step:           2  ;  Sim. Time [au]:          40.00
Ki    0.99981520E-01    0.00000000E+00    0.00000000E+00
           1
     Units: angs.;  Time step:           2  ;  Sim. Time [au]:          40.00
Ki    0.99982869E-01    0.00000000E+00    0.00000000E+00
           1
     Units: angs.;  Time step:           2  ;  Sim. Time [au]:          40.00
Ki    0.99985061E-01    0.00000000E+00    0.00000000E+00
           1
     Units: angs.;  Time step:           2  ;  Sim. Time [au]:          40.00
Ki    0.99988144E-01    0.00000000E+00    0.00000000E+00
