           6
 Time step:           1
C  -0.5967650445E-02 -0.1045648957E-02  0.3364884650E-01
N  -0.8986877681E-03 -0.3981438333E-02  0.1284522305E+01
H   0.1074036522E+01  0.9245726998E-01 -0.4334297092E+00
H   0.9094772622E+00 -0.6597987851E-01  0.1896095637E+01
H  -0.8749059714E+00  0.1113629045E+00  0.1931937267E+01
H  -0.1025622239E+01 -0.7055489534E-01 -0.4894363334E+00
