           6
     Units: angs.;  Time step:           1  ;  Sim. Time [au]:          10.00
C    -0.99224395E+00   -0.13318068E+01   -0.42427680E-01
N     0.44286236E+00    0.96282581E+00    0.93386892E+00
H    -0.43378626E+00   -0.19807567E+01   -0.65001217E+00
H    -0.15798393E+01   -0.83210587E+00    0.59145272E+00
H     0.10877769E+01    0.32994992E+00    0.13989035E+01
H     0.12992877E+01    0.13096634E+01    0.31000375E+00
