         159
 Time step:           1
O   0.4746889759E+00  0.6448108154E+00  0.4549550528E-01
H   0.8758744048E+00 -0.3304313664E-01  0.7071400495E+00
H  -0.1623623415E+00  0.1187015503E+00 -0.5250913460E+00
O   0.2685941782E+01 -0.1074625918E+01 -0.1820870892E+01
H   0.2468249180E+01 -0.2067502294E+01 -0.1802408074E+01
H   0.2153730669E+01 -0.6838057436E+00 -0.2596734984E+01
O  -0.5053811136E+01  0.1059011023E+01  0.1114915022E+01
H  -0.5648506944E+01  0.3775645401E+00  0.1548545150E+01
H  -0.4321516958E+01  0.1300621192E+01  0.1797614517E+01
O   0.4038678915E+01  0.4791566252E+01 -0.7413504985E-01
H   0.3687819783E+01  0.3999013278E+01 -0.6403617955E+00
H   0.4907006668E+01  0.5094387210E+01 -0.4640763122E+00
O  -0.4493855915E+01  0.4965384631E+01  0.1782900371E+01
H  -0.3732436801E+01  0.4471626145E+01  0.1318947895E+01
H  -0.5070780480E+01  0.5371058573E+01  0.1068459906E+01
O   0.1700561650E+00  0.3273079281E+01  0.3069264922E+00
H   0.2528411097E+00  0.2249400295E+01  0.2205316200E+00
H   0.9281786833E+00  0.3587250114E+01  0.9222390917E+00
O   0.1352266257E+01 -0.3718632614E+01  0.3235243624E+00
H   0.2014683748E+01 -0.4420237007E+01  0.7049009798E+00
H   0.1640395984E+01 -0.3614520705E+01 -0.6775687964E+00
O  -0.2503636981E+01 -0.2040188601E+01  0.5322920410E+00
H  -0.2377181196E+01 -0.1768573166E+01  0.1505919285E+01
H  -0.2017420945E+01 -0.2942561136E+01  0.4012191258E+00
O   0.1888152965E+01  0.2282505151E+01 -0.4111783554E+01
H   0.9417757740E+00  0.2691741903E+01 -0.4078373067E+01
H   0.2402244370E+01  0.2746342621E+01 -0.3385747021E+01
O  -0.3084926045E+01  0.1996257139E+01  0.2751772357E+01
H  -0.3485794228E+01  0.2670827642E+01  0.3419165428E+01
H  -0.2743328508E+01  0.2551722145E+01  0.1958750278E+01
O   0.5055632591E+01 -0.3626748627E+01  0.3608220292E+00
H   0.4470813619E+01 -0.4429831643E+01  0.4308682187E+00
H   0.5081859061E+01 -0.3229559075E+01  0.1296588711E+01
O  -0.4065312803E+01  0.3922991637E+01  0.4301035164E+01
H  -0.3241165785E+01  0.4518354307E+01  0.4403310886E+01
H  -0.4543540761E+01  0.4348231541E+01  0.3519880276E+01
O   0.4109400304E+01  0.1984493538E+01  0.2503718904E+01
H   0.4619029219E+01  0.1676412703E+01  0.1648293784E+01
H   0.4764637931E+01  0.2535567006E+01  0.3032473929E+01
O   0.1318127060E+01 -0.3103587420E+00 -0.4077644307E+01
H   0.2968339815E+00 -0.1832887431E+00 -0.3961186672E+01
H   0.1650951452E+01  0.6388884364E+00 -0.4178282088E+01
O   0.4801203787E+01  0.1297127542E+01 -0.2877392106E+01
H   0.4601706961E+01  0.1060771844E+01 -0.3830243189E+01
H   0.5120063434E+01  0.4741897472E+00 -0.2383955267E+01
O   0.4583346923E+01 -0.2843703103E+01  0.2965425139E+01
H   0.4326941216E+01 -0.1928298282E+01  0.3374668986E+01
H   0.3922288337E+01 -0.3519921478E+01  0.3330311489E+01
O  -0.2697952320E+01 -0.3537762356E+00 -0.1604653146E+01
H  -0.3147264887E+01 -0.1063716560E+01 -0.2192432709E+01
H  -0.2581419490E+01 -0.8345859537E+00 -0.7067565632E+00
O  -0.2487505783E+01  0.3568849963E+01  0.6260789533E+00
H  -0.2907238706E+01  0.3083423103E+01 -0.1745827769E+00
H  -0.1481635155E+01  0.3596163486E+01  0.4508006756E+00
O  -0.4613541208E+01 -0.3042154445E+01  0.2120135556E+01
H  -0.4094234605E+01 -0.2801280044E+01  0.1281945180E+01
H  -0.4094629481E+01 -0.2599817646E+01  0.2883509782E+01
O  -0.4261207894E+01  0.1052726371E+00  0.5233461687E+01
H  -0.4121715283E+01  0.1105159899E+01  0.5130120068E+01
H  -0.5144594868E+01 -0.6309078563E-01  0.5696393468E+01
O   0.1227339118E+01  0.5005312536E+01 -0.2665202043E+01
H   0.1730837605E+01  0.5841043964E+01 -0.2898829094E+01
H   0.1531004319E+01  0.4627591751E+01 -0.1807484175E+01
O   0.1824318455E+00 -0.4871317238E+01  0.4431211426E+01
H  -0.2806419428E+00 -0.4893212013E+01  0.5332910780E+01
H  -0.3215981886E+00 -0.5476567852E+01  0.3785957695E+01
O  -0.1029829892E+01 -0.6614468055E+01  0.1689851465E+01
H  -0.1173840623E+01 -0.5763825990E+01  0.1154934376E+01
H  -0.1600469065E+01 -0.7337796567E+01  0.1309500671E+01
O  -0.3961953499E+01 -0.2522954616E+01 -0.2703913536E+01
H  -0.4288095598E+01 -0.2918280907E+01 -0.1811617393E+01
H  -0.4742422462E+01 -0.2451826104E+01 -0.3331819846E+01
O   0.2601173517E+01 -0.2620638699E+01 -0.4622472743E+01
H   0.2078412995E+01 -0.1743111836E+01 -0.4484722850E+01
H   0.2999849230E+01 -0.2602481800E+01 -0.5541423726E+01
O   0.2053688974E+01 -0.3718848141E+01 -0.2263973060E+01
H   0.2268971755E+01 -0.3326601467E+01 -0.3176560988E+01
H   0.1946353875E+01 -0.4726679612E+01 -0.2428513705E+01
O   0.1210495973E+01 -0.1336885674E+01  0.1691117901E+01
H   0.6901545161E+00 -0.1580887514E+01  0.2535508321E+01
H   0.1368649011E+01 -0.2203853398E+01  0.1185941038E+01
O  -0.1204641759E+01 -0.4420240806E+01  0.3765741156E-01
H  -0.1154992620E+01 -0.4906738087E+01 -0.8643035665E+00
H  -0.2485918415E+00 -0.4095295021E+01  0.2227308311E+00
O  -0.1061771370E+01 -0.3948128997E+01 -0.6506279868E+01
H  -0.1283987592E+01 -0.3871143482E+01 -0.5510826349E+01
H  -0.1430455032E+01 -0.3135320633E+01 -0.6972483111E+01
O   0.3008607016E+01 -0.5627551253E+01  0.1279098754E+01
H   0.3051738045E+01 -0.5316924176E+01  0.2242863419E+01
H   0.2676191719E+01 -0.6577328629E+01  0.1299828738E+01
O  -0.2825610763E+01 -0.1591426952E+01  0.3578903432E+01
H  -0.3285244381E+01 -0.9439878121E+00  0.4225147283E+01
H  -0.1842981832E+01 -0.1652350473E+01  0.3815440830E+01
O  -0.4559582984E+01  0.2551206953E+01 -0.5190272447E+01
H  -0.5449710690E+01  0.2323948237E+01 -0.5580464985E+01
H  -0.3886568290E+01  0.1850736473E+01 -0.5512728696E+01
O   0.5650925773E+01  0.1329835008E+01  0.4111445375E+00
H   0.6465139173E+01  0.1747660370E+01 -0.1387903880E-01
H   0.5452286345E+01  0.4854052995E+00 -0.1220245815E+00
O   0.1663408388E+01  0.1288327925E+01  0.6580117415E+01
H   0.1405480777E+01  0.5196249993E+00  0.5983237778E+01
H   0.7802659466E+00  0.1648394895E+01  0.6963315338E+01
O  -0.3905136289E+01  0.2049856857E+01 -0.1124744922E+01
H  -0.3439441625E+01  0.1177237765E+01 -0.1410306060E+01
H  -0.4526489887E+01  0.1761445747E+01 -0.3442725513E+00
O   0.2962560125E+01  0.2749889554E+01 -0.1452556255E+01
H   0.3676784744E+01  0.2143331276E+01 -0.1865763215E+01
H   0.2241943348E+01  0.2163312149E+01 -0.1044611319E+01
O  -0.6400308567E+00  0.3263537184E+01 -0.3537460446E+01
H  -0.5123017972E-01  0.4036322255E+01 -0.3177720014E+01
H  -0.1614873156E+01  0.3586637653E+01 -0.3421975479E+01
O  -0.1213093486E+01  0.6231947560E+00 -0.3674773748E+01
H  -0.9984338478E+00  0.1607739083E+01 -0.3581350958E+01
H  -0.1738307353E+01  0.3246040449E+00 -0.2835301162E+01
O   0.6934386658E+00  0.5565313628E+01  0.3337457771E+01
H   0.1313570121E+01  0.6044873603E+01  0.3970949641E+01
H   0.1257857483E+01  0.4952051101E+01  0.2742496623E+01
O   0.2330473869E+01  0.3982953452E+01  0.1846415960E+01
H   0.2843244683E+01  0.3172757702E+01  0.2147553466E+01
H   0.2957880040E+01  0.4438227510E+01  0.1167538358E+01
O   0.2871611033E+01 -0.4861331638E+01  0.3877439678E+01
H   0.3328759875E+01 -0.5204152712E+01  0.4681947556E+01
H   0.1862856513E+01 -0.4782393521E+01  0.4088497347E+01
O  -0.1762477278E+01 -0.3674245177E+01 -0.3911233126E+01
H  -0.2529424072E+01 -0.3185187756E+01 -0.3466911881E+01
H  -0.1296850243E+01 -0.4248353892E+01 -0.3221132726E+01
O  -0.1397151783E+00 -0.2169069414E+01  0.3918736430E+01
H   0.4893859843E+00 -0.1751765800E+01  0.4626612852E+01
H  -0.4107454521E-01 -0.3165760843E+01  0.4023350784E+01
O   0.1864234632E+01 -0.6421473445E+01 -0.2684794477E+01
H   0.2136064642E+01 -0.6680834454E+01 -0.3621002986E+01
H   0.2551304501E+01 -0.6773663378E+01 -0.2033184240E+01
O   0.5236258989E+01 -0.8588969281E+00 -0.1170194597E+01
H   0.4229334629E+01 -0.9166668503E+00 -0.1360322393E+01
H   0.5485174813E+01 -0.1777105129E+01 -0.8017803348E+00
O  -0.9715416764E+00  0.1786480281E+01  0.7118269410E+01
H  -0.1808666833E+01  0.2237659005E+01  0.7427595864E+01
H  -0.1085324604E+01  0.1578229455E+01  0.6118635240E+01
O  -0.2751982269E+01  0.6791540295E+00 -0.5901998007E+01
H  -0.2170892143E+01  0.5983464279E+00 -0.5051752491E+01
H  -0.2146404862E+01  0.6014149787E+00 -0.6703533140E+01
O  -0.1065708609E+01  0.1370239020E+01  0.4466352479E+01
H  -0.2704032436E+00  0.1789672291E+01  0.3998028015E+01
H  -0.1854839739E+01  0.1431422466E+01  0.3815182181E+01
O   0.1745357658E+01 -0.1360924077E+01  0.5629824504E+01
H   0.2053331369E+01 -0.1230759234E+01  0.6578860509E+01
H   0.2520757980E+01 -0.1061165544E+01  0.5011061550E+01
O   0.3755728481E+01 -0.3729498998E+00  0.4116030202E+01
H   0.3582866891E+01  0.1902741582E+00  0.3295382680E+01
H   0.4185997162E+01  0.2753951539E+00  0.4796322285E+01
O  -0.3245073944E+01  0.3761209717E+01 -0.3165100573E+01
H  -0.3606762772E+01  0.3224885462E+01 -0.2365000269E+01
H  -0.3783311955E+01  0.3458468048E+01 -0.3966052318E+01
O  -0.1969206103E+01  0.5531702805E+01  0.3700097975E+01
H  -0.2356451229E+01  0.5829976249E+01  0.2835068753E+01
H  -0.9514314905E+00  0.5531694301E+01  0.3599200787E+01
O  -0.7822458032E+00 -0.5755702299E+01 -0.2303082648E+01
H  -0.1322018353E+01 -0.6334661356E+01 -0.2939754618E+01
H   0.1866044725E+00 -0.6002993401E+01 -0.2402716587E+01
         159
 Time step:           2
O   0.4774507054E+00  0.6423819563E+00  0.4827009722E-01
H   0.8745570794E+00 -0.3703891113E-01  0.7107676916E+00
H  -0.1636792229E+00  0.1188749033E+00 -0.5201378239E+00
O   0.2685975662E+01 -0.1074529933E+01 -0.1820667013E+01
H   0.2473298508E+01 -0.2068490599E+01 -0.1802092180E+01
H   0.2158293467E+01 -0.6840912450E+00 -0.2599809634E+01
O  -0.5055060754E+01  0.1061266574E+01  0.1117026795E+01
H  -0.5649905764E+01  0.3781715570E+00  0.1548451105E+01
H  -0.4315709898E+01  0.1287598373E+01  0.1808904251E+01
O   0.4037872824E+01  0.4791388039E+01 -0.7282535153E-01
H   0.3687304799E+01  0.3993091955E+01 -0.6432332537E+00
H   0.4902568860E+01  0.5092742548E+01 -0.4664923840E+00
O  -0.4492487152E+01  0.4967947318E+01  0.1782982279E+01
H  -0.3731437798E+01  0.4481524407E+01  0.1320782333E+01
H  -0.5067053697E+01  0.5370002831E+01  0.1062746188E+01
O   0.1720175379E+00  0.3272920661E+01  0.3054162003E+00
H   0.2412886246E+00  0.2245276746E+01  0.2272355828E+00
H   0.9281368729E+00  0.3586081229E+01  0.9329336300E+00
O   0.1348277031E+01 -0.3719810212E+01  0.3232978646E+00
H   0.2022126542E+01 -0.4436858614E+01  0.6952996824E+00
H   0.1645697287E+01 -0.3620976619E+01 -0.6975080637E+00
O  -0.2503168256E+01 -0.2042738354E+01  0.5312137584E+00
H  -0.2383782253E+01 -0.1780934433E+01  0.1511720637E+01
H  -0.2008357761E+01 -0.2953039629E+01  0.4121531407E+00
O   0.1887832527E+01  0.2282399803E+01 -0.4111336243E+01
H   0.9342580704E+00  0.2694848855E+01 -0.4072504884E+01
H   0.2401893599E+01  0.2744418722E+01 -0.3392136979E+01
O  -0.3085605771E+01  0.1995871642E+01  0.2749663325E+01
H  -0.3491380618E+01  0.2660995318E+01  0.3426634045E+01
H  -0.2744512528E+01  0.2548549648E+01  0.1952008356E+01
O   0.5052615940E+01 -0.3631683112E+01  0.3571279414E+00
H   0.4481604179E+01 -0.4427243850E+01  0.4387608203E+00
H   0.5089135724E+01 -0.3228247472E+01  0.1285715971E+01
O  -0.4066174559E+01  0.3923362147E+01  0.4300385821E+01
H  -0.3245631229E+01  0.4518713998E+01  0.4415183395E+01
H  -0.4540373998E+01  0.4355374672E+01  0.3530268004E+01
O   0.4109022563E+01  0.1983125669E+01  0.2502966119E+01
H   0.4630513976E+01  0.1664639749E+01  0.1644060771E+01
H   0.4764103604E+01  0.2542970398E+01  0.3028598976E+01
O   0.1317548128E+01 -0.3080620919E+00 -0.4079214866E+01
H   0.2855933480E+00 -0.1835326047E+00 -0.3944205698E+01
H   0.1649148894E+01  0.6246485322E+00 -0.4162277142E+01
O   0.4802141232E+01  0.1294796403E+01 -0.2877331539E+01
H   0.4610156674E+01  0.1058215760E+01 -0.3829205866E+01
H   0.5110373070E+01  0.4789632956E+00 -0.2377058857E+01
O   0.4582484267E+01 -0.2845797954E+01  0.2963995878E+01
H   0.4307668597E+01 -0.1923699172E+01  0.3391212264E+01
H   0.3923659675E+01 -0.3518200505E+01  0.3337051122E+01
O  -0.2699199367E+01 -0.3517681883E+00 -0.1601672245E+01
H  -0.3144227493E+01 -0.1064798654E+01 -0.2194885331E+01
H  -0.2568792156E+01 -0.8345421971E+00 -0.7066749645E+00
O  -0.2488260299E+01  0.3567760261E+01  0.6252736329E+00
H  -0.2899547263E+01  0.3079213626E+01 -0.1808592891E+00
H  -0.1489067997E+01  0.3610738721E+01  0.4500837307E+00
O  -0.4617637460E+01 -0.3039028888E+01  0.2122101706E+01
H  -0.4084650502E+01 -0.2811931560E+01  0.1277247038E+01
H  -0.4100069060E+01 -0.2595356503E+01  0.2892531092E+01
O  -0.4259186972E+01  0.1071994495E+00  0.5235159331E+01
H  -0.4122080288E+01  0.1114720289E+01  0.5128375246E+01
H  -0.5150375460E+01 -0.5432969393E-01  0.5703870342E+01
O   0.1229768647E+01  0.5004472051E+01 -0.2665699935E+01
H   0.1730324084E+01  0.5841134073E+01 -0.2904109019E+01
H   0.1512194054E+01  0.4629833000E+01 -0.1816280831E+01
O   0.1827858501E+00 -0.4870030555E+01  0.4428877808E+01
H  -0.2709904352E+00 -0.4889332907E+01  0.5340780212E+01
H  -0.3201059908E+00 -0.5492400322E+01  0.3793347523E+01
O  -0.1030570076E+01 -0.6612886947E+01  0.1687894677E+01
H  -0.1168821820E+01 -0.5755324312E+01  0.1172126058E+01
H  -0.1595484156E+01 -0.7333903664E+01  0.1310227608E+01
O  -0.3959746916E+01 -0.2521118121E+01 -0.2703992712E+01
H  -0.4291769599E+01 -0.2927409829E+01 -0.1801323386E+01
H  -0.4744874029E+01 -0.2445557841E+01 -0.3322579415E+01
O   0.2599930932E+01 -0.2621489548E+01 -0.4625306208E+01
H   0.2077451797E+01 -0.1741444720E+01 -0.4475244288E+01
H   0.2998775530E+01 -0.2593201329E+01 -0.5544133718E+01
O   0.2054529009E+01 -0.3718929169E+01 -0.2262685530E+01
H   0.2260174942E+01 -0.3333124961E+01 -0.3165897423E+01
H   0.1944639320E+01 -0.4735977171E+01 -0.2420636062E+01
O   0.1207473189E+01 -0.1335599631E+01  0.1692067301E+01
H   0.6954535979E+00 -0.1588451246E+01  0.2541013775E+01
H   0.1364802508E+01 -0.2200310610E+01  0.1190327605E+01
O  -0.1200749442E+01 -0.4419839519E+01  0.3680357861E-01
H  -0.1158943715E+01 -0.4911690673E+01 -0.8660236587E+00
H  -0.2423141734E+00 -0.4107260717E+01  0.2229659943E+00
O  -0.1057364830E+01 -0.3951818456E+01 -0.6507409998E+01
H  -0.1277306999E+01 -0.3881420798E+01 -0.5511514115E+01
H  -0.1430031106E+01 -0.3124569430E+01 -0.6966105856E+01
O   0.3008515197E+01 -0.5627824262E+01  0.1281393568E+01
H   0.3048248556E+01 -0.5324724978E+01  0.2234253050E+01
H   0.2670988191E+01 -0.6578458939E+01  0.1301644530E+01
O  -0.2824754444E+01 -0.1588687480E+01  0.3578269597E+01
H  -0.3293012800E+01 -0.9455030417E+00  0.4222048140E+01
H  -0.1846952717E+01 -0.1653371834E+01  0.3806308036E+01
O  -0.4560795297E+01  0.2549613263E+01 -0.5190534307E+01
H  -0.5450047589E+01  0.2315163621E+01 -0.5575136169E+01
H  -0.3890293377E+01  0.1854150870E+01 -0.5524982396E+01
O   0.5652555279E+01  0.1328657914E+01  0.4122157677E+00
H   0.6476162756E+01  0.1742805942E+01 -0.1123972962E-01
H   0.5455945733E+01  0.4880986559E+00 -0.1184965212E+00
O   0.1665754356E+01  0.1287494774E+01  0.6581992687E+01
H   0.1411671123E+01  0.5198563901E+00  0.5981436758E+01
H   0.7757334697E+00  0.1649591325E+01  0.6960890749E+01
O  -0.3901823892E+01  0.2049334305E+01 -0.1123517671E+01
H  -0.3426887273E+01  0.1176660824E+01 -0.1413927366E+01
H  -0.4533382343E+01  0.1753913481E+01 -0.3427158001E+00
O   0.2960420023E+01  0.2748274702E+01 -0.1451503776E+01
H   0.3679377436E+01  0.2145534143E+01 -0.1857494931E+01
H   0.2230299111E+01  0.2165936769E+01 -0.1047288313E+01
O  -0.6433820506E+00  0.3266101788E+01 -0.3541468526E+01
H  -0.4699602846E-01  0.4047215385E+01 -0.3180387551E+01
H  -0.1619505189E+01  0.3598654998E+01 -0.3425176052E+01
O  -0.1213991473E+01  0.6209644962E+00 -0.3674293971E+01
H  -0.9942123499E+00  0.1589753281E+01 -0.3590490241E+01
H  -0.1734565903E+01  0.3138318197E+00 -0.2822482488E+01
O   0.6899588889E+00  0.5565622597E+01  0.3336747361E+01
H   0.1315523547E+01  0.6034082613E+01  0.3983014011E+01
H   0.1250045260E+01  0.4947097722E+01  0.2742226475E+01
O   0.2330685933E+01  0.3983298284E+01  0.1848313876E+01
H   0.2845473294E+01  0.3192654186E+01  0.2141957003E+01
H   0.2958188410E+01  0.4435794389E+01  0.1161799402E+01
O   0.2872308183E+01 -0.4860938662E+01  0.3878942875E+01
H   0.3327019545E+01 -0.5199959881E+01  0.4664553390E+01
H   0.1855889685E+01 -0.4776235770E+01  0.4089712490E+01
O  -0.1762733597E+01 -0.3673203702E+01 -0.3910754965E+01
H  -0.2530862819E+01 -0.3193247425E+01 -0.3469338422E+01
H  -0.1297456075E+01 -0.4251639848E+01 -0.3226546184E+01
O  -0.1384331730E+00 -0.2170585082E+01  0.3917867438E+01
H   0.4953875209E+00 -0.1753724965E+01  0.4631445058E+01
H  -0.4763438575E-01 -0.3159666963E+01  0.4021879963E+01
O   0.1864637470E+01 -0.6420492970E+01 -0.2685531099E+01
H   0.2140632727E+01 -0.6672646016E+01 -0.3622974335E+01
H   0.2553651270E+01 -0.6768840602E+01 -0.2031055848E+01
O   0.5234485976E+01 -0.8612236875E+00 -0.1172948636E+01
H   0.4231751338E+01 -0.9123336872E+00 -0.1356385438E+01
H   0.5483595675E+01 -0.1779444839E+01 -0.7875725718E+00
O  -0.9701468676E+00  0.1787754398E+01  0.7117894631E+01
H  -0.1813436287E+01  0.2228829479E+01  0.7422177900E+01
H  -0.1092425327E+01  0.1586969342E+01  0.6117292559E+01
O  -0.2753480954E+01  0.6801425933E+00 -0.5900482970E+01
H  -0.2162523032E+01  0.5962560470E+00 -0.5044180786E+01
H  -0.2154606152E+01  0.6135115227E+00 -0.6718148279E+01
O  -0.1066563040E+01  0.1371214356E+01  0.4465479996E+01
H  -0.2662813119E+00  0.1796539157E+01  0.3990276134E+01
H  -0.1859566978E+01  0.1439331454E+01  0.3815656057E+01
O   0.1742722864E+01 -0.1361290535E+01  0.5628743072E+01
H   0.2062564334E+01 -0.1222156527E+01  0.6572608013E+01
H   0.2528214236E+01 -0.1056500399E+01  0.5008957515E+01
O   0.3753971812E+01 -0.3725554925E+00  0.4113956995E+01
H   0.3588080826E+01  0.1919692927E+00  0.3298338938E+01
H   0.4191687339E+01  0.2836438075E+00  0.4807406499E+01
O  -0.3245654549E+01  0.3762275495E+01 -0.3167257467E+01
H  -0.3609311119E+01  0.3222606861E+01 -0.2362849892E+01
H  -0.3781506899E+01  0.3463107677E+01 -0.3960921145E+01
O  -0.1966299994E+01  0.5534493764E+01  0.3700222462E+01
H  -0.2346334968E+01  0.5840952672E+01  0.2845665712E+01
H  -0.9510465599E+00  0.5527593160E+01  0.3601010119E+01
O  -0.7818391659E+00 -0.5755565406E+01 -0.2303184231E+01
H  -0.1333748361E+01 -0.6324995053E+01 -0.2954802868E+01
H   0.1697844259E+00 -0.5991550354E+01 -0.2405164512E+01
         159
 Time step:           3
O   0.4801569351E+00  0.6400056434E+00  0.5098908549E-01
H   0.8733020553E+00 -0.4091190169E-01  0.7143121279E+00
H  -0.1649243625E+00  0.1190901147E+00 -0.5153252283E+00
O   0.2685998916E+01 -0.1074455191E+01 -0.1820514077E+01
H   0.2477078422E+01 -0.2069211442E+01 -0.1801894579E+01
H   0.2161711286E+01 -0.6843373707E+00 -0.2602105171E+01
O  -0.5056571873E+01  0.1064128700E+01  0.1119784712E+01
H  -0.5651616258E+01  0.3788172737E+00  0.1547931816E+01
H  -0.4308812106E+01  0.1271399998E+01  0.1822057393E+01
O   0.4036909099E+01  0.4791083977E+01 -0.7146593188E-01
H   0.3686895962E+01  0.3987678864E+01 -0.6455113481E+00
H   0.4898493791E+01  0.5091437716E+01 -0.4692093441E+00
O  -0.4491252129E+01  0.4970424430E+01  0.1783062436E+01
H  -0.3729698580E+01  0.4490328364E+01  0.1322193544E+01
H  -0.5063415120E+01  0.5368869288E+01  0.1057638326E+01
O   0.1739602131E+00  0.3272765884E+01  0.3040076010E+00
H   0.2303092795E+00  0.2241856982E+01  0.2337003223E+00
H   0.9272682474E+00  0.3584546204E+01  0.9424547191E+00
O   0.1345072559E+01 -0.3720928015E+01  0.3229124675E+00
H   0.2026745422E+01 -0.4449134399E+01  0.6864834081E+00
H   0.1648996889E+01 -0.3626591139E+01 -0.7109147324E+00
O  -0.2502626364E+01 -0.2045404080E+01  0.5301862689E+00
H  -0.2390591702E+01 -0.1793174756E+01  0.1516923989E+01
H  -0.2000204027E+01 -0.2961837613E+01  0.4229994073E+00
O   0.1887355916E+01  0.2282320216E+01 -0.4110948875E+01
H   0.9286087254E+00  0.2697089092E+01 -0.4066877506E+01
H   0.2402272211E+01  0.2743128471E+01 -0.3397401478E+01
O  -0.3086296048E+01  0.1995478116E+01  0.2747539284E+01
H  -0.3496790180E+01  0.2651089950E+01  0.3433578025E+01
H  -0.2745971139E+01  0.2545397131E+01  0.1945591487E+01
O   0.5049796611E+01 -0.3636324932E+01  0.3535038033E+00
H   0.4490564703E+01 -0.4426702284E+01  0.4465731102E+00
H   0.5095992470E+01 -0.3226648524E+01  0.1275934790E+01
O  -0.4066991446E+01  0.3923668596E+01  0.4299839694E+01
H  -0.3249814956E+01  0.4519181764E+01  0.4426837214E+01
H  -0.4538026739E+01  0.4363110616E+01  0.3539128918E+01
O   0.4108697328E+01  0.1981447591E+01  0.2501949566E+01
H   0.4642965591E+01  0.1651283223E+01  0.1641012301E+01
H   0.4762937578E+01  0.2551505588E+01  0.3023576142E+01
O   0.1316812966E+01 -0.3062138051E+00 -0.4080564658E+01
H   0.2779207066E+00 -0.1838849657E+00 -0.3929498145E+01
H   0.1648587177E+01  0.6151736215E+00 -0.4148457600E+01
O   0.4802976380E+01  0.1292750468E+01 -0.2877273105E+01
H   0.4617783440E+01  0.1055701223E+01 -0.3828626209E+01
H   0.5101872498E+01  0.4821551407E+00 -0.2370137859E+01
O   0.4581629175E+01 -0.2847476847E+01  0.2962813983E+01
H   0.4291381517E+01 -0.1922348960E+01  0.3404508006E+01
H   0.3924862508E+01 -0.3517023802E+01  0.3342977379E+01
O  -0.2700202789E+01 -0.3501750073E+00 -0.1599309799E+01
H  -0.3141522919E+01 -0.1065265846E+01 -0.2196319020E+01
H  -0.2558752067E+01 -0.8346231515E+00 -0.7065564568E+00
O  -0.2489003020E+01  0.3566793842E+01  0.6245513321E+00
H  -0.2892771414E+01  0.3075745212E+01 -0.1858808340E+00
H  -0.1494319010E+01  0.3623496001E+01  0.4492986056E+00
O  -0.4621675933E+01 -0.3035830350E+01  0.2124035689E+01
H  -0.4075955855E+01 -0.2822950044E+01  0.1274031418E+01
H  -0.4106058095E+01 -0.2591257019E+01  0.2900703292E+01
O  -0.4257030445E+01  0.1094443344E+00  0.5237092520E+01
H  -0.4122527161E+01  0.1123673740E+01  0.5126448977E+01
H  -0.5155113562E+01 -0.4438573635E-01  0.5711344548E+01
O   0.1231596484E+01  0.5003885503E+01 -0.2666313121E+01
H   0.1730000490E+01  0.5841103009E+01 -0.2907913039E+01
H   0.1498580541E+01  0.4630387477E+01 -0.1819975765E+01
O   0.1830226655E+00 -0.4869041388E+01  0.4427041104E+01
H  -0.2629200708E+00 -0.4886297994E+01  0.5346030882E+01
H  -0.3185657317E+00 -0.5504564402E+01  0.3799556405E+01
O  -0.1031420945E+01 -0.6610894481E+01  0.1685545540E+01
H  -0.1162834338E+01 -0.5743842816E+01  0.1192972646E+01
H  -0.1590019313E+01 -0.7329662241E+01  0.1310623081E+01
O  -0.3957954296E+01 -0.2519665305E+01 -0.2703853470E+01
H  -0.4293652810E+01 -0.2933716795E+01 -0.1795530015E+01
H  -0.4747176938E+01 -0.2440173344E+01 -0.3315183503E+01
O   0.2598346215E+01 -0.2622505058E+01 -0.4628848570E+01
H   0.2076638222E+01 -0.1740040134E+01 -0.4463648416E+01
H   0.2997308094E+01 -0.2581583290E+01 -0.5547537867E+01
O   0.2055292255E+01 -0.3719188459E+01 -0.2261269029E+01
H   0.2252216990E+01 -0.3338491368E+01 -0.3158045110E+01
H   0.1943193946E+01 -0.4743307018E+01 -0.2412863197E+01
O   0.1203868771E+01 -0.1334050779E+01  0.1693242798E+01
H   0.7017856553E+00 -0.1597139212E+01  0.2547249615E+01
H   0.1360410072E+01 -0.2196792138E+01  0.1194950036E+01
O  -0.1195272816E+01 -0.4419296339E+01  0.3556113668E-01
H  -0.1164452812E+01 -0.4918323832E+01 -0.8678451576E+00
H  -0.2329191221E+00 -0.4123935446E+01  0.2232903933E+00
O  -0.1053022231E+01 -0.3955394531E+01 -0.6508586162E+01
H  -0.1270650872E+01 -0.3891642531E+01 -0.5512150594E+01
H  -0.1428862371E+01 -0.3115446981E+01 -0.6958949046E+01
O   0.3008373909E+01 -0.5628245599E+01  0.1284008692E+01
H   0.3044228603E+01 -0.5333190404E+01  0.2226420055E+01
H   0.2664915793E+01 -0.6579297604E+01  0.1303795630E+01
O  -0.2824039115E+01 -0.1586096866E+01  0.3577614189E+01
H  -0.3300121908E+01 -0.9467942189E+00  0.4219226488E+01
H  -0.1849366046E+01 -0.1654229883E+01  0.3798144152E+01
O  -0.4561818897E+01  0.2548281832E+01 -0.5190757739E+01
H  -0.5450660345E+01  0.2307828842E+01 -0.5570742315E+01
H  -0.3893075349E+01  0.1856825972E+01 -0.5535156762E+01
O   0.5654188858E+01  0.1327615989E+01  0.4132458990E+00
H   0.6485653150E+01  0.1737692890E+01 -0.8236662765E-02
H   0.5459172381E+01  0.4897372675E+00 -0.1156292769E+00
O   0.1667486825E+01  0.1286877239E+01  0.6583445477E+01
H   0.1416342518E+01  0.5200988975E+00  0.5980076558E+01
H   0.7732126707E+00  0.1650069110E+01  0.6958658963E+01
O  -0.3899482618E+01  0.2048874530E+01 -0.1122585758E+01
H  -0.3418468986E+01  0.1177089448E+01 -0.1416085324E+01
H  -0.4537143617E+01  0.1748958716E+01 -0.3428213649E+00
O   0.2958041526E+01  0.2746511218E+01 -0.1450322141E+01
H   0.3682359449E+01  0.2147652233E+01 -0.1848693887E+01
H   0.2218146603E+01  0.2168918711E+01 -0.1050497469E+01
O  -0.6469125950E+00  0.3268977892E+01 -0.3545691645E+01
H  -0.4367821590E-01  0.4057111386E+01 -0.3183990587E+01
H  -0.1623738477E+01  0.3610968123E+01 -0.3428715767E+01
O  -0.1214852383E+01  0.6188111654E+00 -0.3673807545E+01
H  -0.9901425418E+00  0.1577258108E+01 -0.3597858588E+01
H  -0.1730447837E+01  0.3053879667E+00 -0.2813086789E+01
O   0.6864863726E+00  0.5565963554E+01  0.3336076355E+01
H   0.1316716255E+01  0.6022518230E+01  0.3994405666E+01
H   0.1242117546E+01  0.4942193438E+01  0.2742028003E+01
O   0.2330860532E+01  0.3983923408E+01  0.1850482307E+01
H   0.2849908780E+01  0.3213394650E+01  0.2136467004E+01
H   0.2957943287E+01  0.4432630268E+01  0.1155419379E+01
O   0.2872841293E+01 -0.4860415986E+01  0.3880379267E+01
H   0.3326807730E+01 -0.5196793441E+01  0.4649104957E+01
H   0.1850041848E+01 -0.4769821608E+01  0.4090749570E+01
O  -0.1762967708E+01 -0.3672087304E+01 -0.3910284746E+01
H  -0.2533304800E+01 -0.3201507082E+01 -0.3471438953E+01
H  -0.1297991240E+01 -0.4255362849E+01 -0.3232150365E+01
O  -0.1369911016E+00 -0.2172080011E+01  0.3916970555E+01
H   0.5010582946E+00 -0.1756465693E+01  0.4635733301E+01
H  -0.5459639258E-01 -0.3154966788E+01  0.4020464292E+01
O   0.1865093084E+01 -0.6419449447E+01 -0.2686300278E+01
H   0.2145473122E+01 -0.6663927198E+01 -0.3624982437E+01
H   0.2555834149E+01 -0.6763638658E+01 -0.2029141975E+01
O   0.5232697233E+01 -0.8637764764E+00 -0.1175827363E+01
H   0.4233130948E+01 -0.9079670516E+00 -0.1352382009E+01
H   0.5481413566E+01 -0.1780845685E+01 -0.7728627250E+00
O  -0.9681996758E+00  0.1789544594E+01  0.7117341792E+01
H  -0.1820163489E+01  0.2216580977E+01  0.7414898548E+01
H  -0.1102020470E+01  0.1599050195E+01  0.6115440874E+01
O  -0.2755269236E+01  0.6813868339E+00 -0.5898526421E+01
H  -0.2152990230E+01  0.5937672070E+00 -0.5036323723E+01
H  -0.2165901469E+01  0.6290762071E+00 -0.6735385439E+01
O  -0.1067664729E+01  0.1372643093E+01  0.4464174262E+01
H  -0.2623639040E+00  0.1805008825E+01  0.3980625125E+01
H  -0.1865623837E+01  0.1450160195E+01  0.3816658871E+01
O   0.1740025013E+01 -0.1361636995E+01  0.5627506174E+01
H   0.2072214412E+01 -0.1212995980E+01  0.6566031359E+01
H   0.2534499440E+01 -0.1052161719E+01  0.5007598433E+01
O   0.3752609799E+01 -0.3721102806E+00  0.4112446402E+01
H   0.3592259492E+01  0.1941005539E+00  0.3299803125E+01
H   0.4194766274E+01  0.2879999655E+00  0.4814012675E+01
O  -0.3246094396E+01  0.3763133099E+01 -0.3168840765E+01
H  -0.3610865031E+01  0.3221395225E+01 -0.2362149436E+01
H  -0.3781029985E+01  0.3466262641E+01 -0.3958260198E+01
O  -0.1963629928E+01  0.5537009188E+01  0.3700456522E+01
H  -0.2337854501E+01  0.5851589217E+01  0.2853659465E+01
H  -0.9501028915E+00  0.5523862736E+01  0.3602597279E+01
O  -0.7817343611E+00 -0.5755424582E+01 -0.2303342340E+01
H  -0.1344549015E+01 -0.6313996795E+01 -0.2968952945E+01
H   0.1560656419E+00 -0.5980844015E+01 -0.2408147992E+01
         159
 Time step:           4
O   0.4828599319E+00  0.6376354493E+00  0.5370741001E-01
H   0.8720932686E+00 -0.4473121011E-01  0.7178477480E+00
H  -0.1661209702E+00  0.1193416626E+00 -0.5105532549E+00
O   0.2686014257E+01 -0.1074392314E+01 -0.1820393324E+01
H   0.2480038129E+01 -0.2069762538E+01 -0.1801780480E+01
H   0.2164379373E+01 -0.6845649416E+00 -0.2603901937E+01
O  -0.5058334407E+01  0.1067693206E+01  0.1123347492E+01
H  -0.5653964254E+01  0.3793785503E+00  0.1546753447E+01
H  -0.4301154476E+01  0.1251675114E+01  0.1836540024E+01
O   0.4035544701E+01  0.4790531714E+01 -0.6978953663E-01
H   0.3686575275E+01  0.3982131826E+01 -0.6472077660E+00
H   0.4894273131E+01  0.5090466140E+01 -0.4728619473E+00
O  -0.4490055386E+01  0.4973062946E+01  0.1783147637E+01
H  -0.3726816835E+01  0.4498661734E+01  0.1323226875E+01
H  -0.5059498831E+01  0.5367520376E+01  0.1052764009E+01
O   0.1760373518E+00  0.3272600924E+01  0.3026198840E+00
H   0.2192091058E+00  0.2239113556E+01  0.2403790128E+00
H   0.9252286859E+00  0.3582382222E+01  0.9511615966E+00
O   0.1343012958E+01 -0.3721880011E+01  0.3223948501E+00
H   0.2027905937E+01 -0.4455591143E+01  0.6794056209E+00
H   0.1649833767E+01 -0.3630727890E+01 -0.7161174899E+00
O  -0.2502006422E+01 -0.2048119444E+01  0.5292765262E+00
H  -0.2397386799E+01 -0.1804709786E+01  0.1521035698E+01
H  -0.1993647492E+01 -0.2967962715E+01  0.4331858232E+00
O   0.1886568812E+01  0.2282262146E+01 -0.4110568947E+01
H   0.9245017987E+00  0.2698537868E+01 -0.4060528818E+01
H   0.2403762658E+01  0.2742480926E+01 -0.3402112933E+01
O  -0.3087062135E+01  0.1995034912E+01  0.2745210081E+01
H  -0.3502407266E+01  0.2640239169E+01  0.3440326653E+01
H  -0.2747972057E+01  0.2542020231E+01  0.1939095868E+01
O   0.5047706464E+01 -0.3639807235E+01  0.3505919107E+00
H   0.4495743200E+01 -0.4428793680E+01  0.4529797687E+00
H   0.5101191281E+01 -0.3225021110E+01  0.1269147931E+01
O  -0.4067825482E+01  0.3923916229E+01  0.4299382735E+01
H  -0.3254022100E+01  0.4519839575E+01  0.4439301760E+01
H  -0.4536566686E+01  0.4372407948E+01  0.3546764714E+01
O   0.4108485838E+01  0.1979277483E+01  0.2500497085E+01
H   0.4656567583E+01  0.1635703233E+01  0.1640255030E+01
H   0.4760662896E+01  0.2561703358E+01  0.3016694098E+01
O   0.1315885280E+01 -0.3048759949E+00 -0.4081666466E+01
H   0.2744018529E+00 -0.1843637098E+00 -0.3917391829E+01
H   0.1649480028E+01  0.6111951101E+00 -0.4137024863E+01
O   0.4803787102E+01  0.1290812534E+01 -0.2877210759E+01
H   0.4625311652E+01  0.1052914640E+01 -0.3828581926E+01
H   0.5093833447E+01  0.4837932439E+00 -0.2362412430E+01
O   0.4580897797E+01 -0.2848459977E+01  0.2962077705E+01