         159
 Time step:           1
O   0.4746949857E+00  0.6448250590E+00  0.4549053534E-01
H   0.8756632510E+00 -0.3323598086E-01  0.7070545381E+00
H  -0.1623267139E+00  0.1186147035E+00 -0.5250361621E+00
O   0.2685937445E+01 -0.1074613970E+01 -0.1820858955E+01
H   0.2468284763E+01 -0.2067502431E+01 -0.1802576250E+01
H   0.2153687932E+01 -0.6838556302E+00 -0.2596727832E+01
O  -0.5053826740E+01  0.1058932906E+01  0.1115071831E+01
H  -0.5648814798E+01  0.3781576737E+00  0.1547318105E+01
H  -0.4321741879E+01  0.1301045522E+01  0.1796571095E+01
O   0.4038826617E+01  0.4791559259E+01 -0.7427430724E-01
H   0.3687933272E+01  0.3998788499E+01 -0.6398061970E+00
H   0.4906292710E+01  0.5094970472E+01 -0.4628241362E+00
O  -0.4493922193E+01  0.4965404010E+01  0.1782746608E+01
H  -0.3734166803E+01  0.4472774561E+01  0.1319778569E+01
H  -0.5069035355E+01  0.5369828086E+01  0.1070322284E+01
O   0.1701800235E+00  0.3273009445E+01  0.3069879508E+00
H   0.2526429437E+00  0.2251487050E+01  0.2209034325E+00
H   0.9265377981E+00  0.3586293413E+01  0.9208653869E+00
O   0.1352387145E+01 -0.3718701307E+01  0.3234546657E+00
H   0.2013229879E+01 -0.4418831876E+01  0.7040296814E+00
H   0.1639771772E+01 -0.3614877623E+01 -0.6754217238E+00
O  -0.2503564916E+01 -0.2040264850E+01  0.5324105734E+00
H  -0.2377510242E+01 -0.1769357186E+01  0.1503635797E+01
H  -0.2018369217E+01 -0.2940594206E+01  0.4015991277E+00
O   0.1888111826E+01  0.2282637568E+01 -0.4111688991E+01
H   0.9440281562E+00  0.2690824390E+01 -0.4078260479E+01
H   0.2400741479E+01  0.2745119782E+01 -0.3387374753E+01
O  -0.3084935502E+01  0.1996387780E+01  0.2751751474E+01
H  -0.3484971643E+01  0.2669842675E+01  0.3417730060E+01
H  -0.2743977238E+01  0.2550606442E+01  0.1960420085E+01
O   0.5055550510E+01 -0.3626823468E+01  0.3609517214E+00
H   0.4472385011E+01 -0.4427614335E+01  0.4309034889E+00
H   0.5081572936E+01 -0.3230608810E+01  0.1294490933E+01
O  -0.4065284361E+01  0.3923120667E+01  0.4300957032E+01
H  -0.3242943064E+01  0.4516998721E+01  0.4402814278E+01
H  -0.4542226627E+01  0.4347236426E+01  0.3521587844E+01
O   0.4109549837E+01  0.1984538297E+01  0.2503708599E+01
H   0.4618175586E+01  0.1677204333E+01  0.1650092394E+01
H   0.4762916823E+01  0.2534086480E+01  0.3030909714E+01
O   0.1318031089E+01 -0.3102242772E+00 -0.4077651659E+01
H   0.2991657167E+00 -0.1834553505E+00 -0.3961258710E+01
H   0.1650151636E+01  0.6369742231E+00 -0.4177873461E+01
O   0.4801222035E+01  0.1296989534E+01 -0.2877479182E+01
H   0.4602284124E+01  0.1061210699E+01 -0.3827572325E+01
H   0.5119211541E+01  0.4759671478E+00 -0.2385275626E+01
O   0.4583229889E+01 -0.2843671543E+01  0.2965534839E+01
H   0.4327369693E+01 -0.1930564793E+01  0.3373774509E+01
H   0.3923767343E+01 -0.3518076898E+01  0.3329583796E+01
O  -0.2697994366E+01 -0.3539310056E+00 -0.1604619166E+01
H  -0.3146363449E+01 -0.1062172046E+01 -0.2190992260E+01
H  -0.2581656603E+01 -0.8335990960E+00 -0.7087832347E+00
O  -0.2487433785E+01  0.3568794378E+01  0.6259517613E+00
H  -0.2906301936E+01  0.3084247186E+01 -0.1728007678E+00
H  -0.1483753799E+01  0.3595991808E+01  0.4511925224E+00
O  -0.4613406022E+01 -0.3042062348E+01  0.2120114728E+01
H  -0.4095225643E+01 -0.2801771152E+01  0.1284252789E+01
H  -0.4095675517E+01 -0.2600784592E+01  0.2881509715E+01
O  -0.4261321265E+01  0.1053934304E+00  0.5233518779E+01
H  -0.4122319494E+01  0.1102524102E+01  0.5130498432E+01
H  -0.5142204422E+01 -0.6238238014E-01  0.5695122245E+01
O   0.1227468467E+01  0.5005394286E+01 -0.2665110245E+01
H   0.1729521653E+01  0.5838657954E+01 -0.2898022434E+01
H   0.1530259954E+01  0.4628714424E+01 -0.1809739804E+01
O   0.1822886651E+00 -0.4871399539E+01  0.4431247589E+01
H  -0.2794886666E+00 -0.4893208785E+01  0.5330496353E+01
H  -0.3204850474E+00 -0.5475155663E+01  0.3787690035E+01
O  -0.1029936888E+01 -0.6614477386E+01  0.1689728548E+01
H  -0.1173596905E+01 -0.5765815535E+01  0.1155862712E+01
H  -0.1598932093E+01 -0.7335608745E+01  0.1310425358E+01
O  -0.3962113443E+01 -0.2522998606E+01 -0.2703887051E+01
H  -0.4287407115E+01 -0.2917257328E+01 -0.1813979015E+01
H  -0.4740476488E+01 -0.2452060618E+01 -0.3329968641E+01
O   0.2601180374E+01 -0.2620531909E+01 -0.4622616541E+01
H   0.2079570860E+01 -0.1744933819E+01 -0.4485198371E+01
H   0.2998630684E+01 -0.2602379545E+01 -0.5538796925E+01
O   0.2053699544E+01 -0.3718945101E+01 -0.2264107629E+01
H   0.2268502785E+01 -0.3327486091E+01 -0.3174756422E+01
H   0.1946749228E+01 -0.4724307885E+01 -0.2428209685E+01
O   0.1210458623E+01 -0.1337030956E+01  0.1691170795E+01
H   0.6913311404E+00 -0.1580584277E+01  0.2533580572E+01
H   0.1368240780E+01 -0.2201909297E+01  0.1187154260E+01
O  -0.1204533740E+01 -0.4420263268E+01  0.3756941867E-01
H  -0.1154958998E+01 -0.4905693509E+01 -0.8622187335E+00
H  -0.2503683809E+00 -0.4096096672E+01  0.2222102689E+00
O  -0.1061855485E+01 -0.3947994745E+01 -0.6506238048E+01
H  -0.1283627526E+01 -0.3871053750E+01 -0.5513112585E+01
H  -0.1429490748E+01 -0.3137523984E+01 -0.6970923370E+01
O   0.3008567977E+01 -0.5627663160E+01  0.1279214072E+01
H   0.3051500335E+01 -0.5317835069E+01  0.2240858564E+01
H   0.2677006996E+01 -0.6574672426E+01  0.1299942332E+01
O  -0.2825533506E+01 -0.1591345051E+01  0.3579023746E+01
H  -0.3284127677E+01 -0.9454293798E+00  0.4223732114E+01
H  -0.1845276312E+01 -0.1652203853E+01  0.3815035953E+01
O  -0.4559650925E+01  0.2551090579E+01 -0.5190381113E+01
H  -0.5447098958E+01  0.2324430850E+01 -0.5579377573E+01
H  -0.3888098756E+01  0.1852147224E+01 -0.5512164372E+01
O   0.5651035400E+01  0.1329792160E+01  0.4109985529E+00
H   0.6462855156E+01  0.1746397276E+01 -0.1273736465E-01
H   0.5452835247E+01  0.4872348177E+00 -0.1208826805E+00
O   0.1663257907E+01  0.1288267484E+01  0.6580083075E+01
H   0.1406094214E+01  0.5214795963E+00  0.5984805406E+01
H   0.7821429058E+00  0.1647362458E+01  0.6962241876E+01
O  -0.3905157239E+01  0.2049713770E+01 -0.1124686058E+01
H  -0.3440531076E+01  0.1179127868E+01 -0.1409497817E+01
H  -0.4525063797E+01  0.1761896665E+01 -0.3459192442E+00
O   0.2962538517E+01  0.2749732019E+01 -0.1452556218E+01
H   0.3675240295E+01  0.2144452619E+01 -0.1864807917E+01
H   0.2243798469E+01  0.2164718894E+01 -0.1045692291E+01
O  -0.6400756058E+00  0.3263679079E+01 -0.3537409101E+01
H  -0.5251948773E-01  0.4034670621E+01 -0.3178415312E+01
H  -0.1612920572E+01  0.3585964988E+01 -0.3422149085E+01
O  -0.1213144301E+01  0.6232700133E+00 -0.3674657362E+01
H  -0.9989283330E+00  0.1605697175E+01 -0.3581422670E+01
H  -0.1737074407E+01  0.3252688349E+00 -0.2837127518E+01
O   0.6936134499E+00  0.5565315631E+01  0.3337479487E+01
H   0.1311973489E+01  0.6043420651E+01  0.3969158703E+01
H   0.1256792443E+01  0.4953540305E+01  0.2744046099E+01
O   0.2330610558E+01  0.3982902383E+01  0.1846373796E+01
H   0.2842281533E+01  0.3174661110E+01  0.2146710134E+01
H   0.2956667781E+01  0.4437111431E+01  0.1168976928E+01
O   0.2871563075E+01 -0.4861372239E+01  0.3877593543E+01
H   0.3327409180E+01 -0.5203231873E+01  0.4679762256E+01
H   0.1865097738E+01 -0.4782663395E+01  0.4088205720E+01
O  -0.1762515783E+01 -0.3674254439E+01 -0.3911068601E+01
H  -0.2527608183E+01 -0.3186560599E+01 -0.3467825476E+01
H  -0.1298028235E+01 -0.4246986323E+01 -0.3222766486E+01
O  -0.1396289746E+00 -0.2169149878E+01  0.3918832285E+01
H   0.4881268402E+00 -0.1752816730E+01  0.4625150938E+01
H  -0.4130708553E-01 -0.3163451731E+01  0.4023180219E+01
O   0.1864375974E+01 -0.6421567271E+01 -0.2684832215E+01
H   0.2135501063E+01 -0.6680143870E+01 -0.3618478238E+01
H   0.2549587602E+01 -0.6772759900E+01 -0.2035046614E+01
O   0.5236191898E+01 -0.8590416049E+00 -0.1170163354E+01
H   0.4231213873E+01 -0.9166821871E+00 -0.1359972564E+01
H   0.5484377612E+01 -0.1774753101E+01 -0.8026676802E+00
O  -0.9716933442E+00  0.1786529646E+01  0.7118214080E+01
H  -0.1806338838E+01  0.2236353034E+01  0.7426511504E+01
H  -0.1085269986E+01  0.1578836674E+01  0.6120676695E+01
O  -0.2751816305E+01  0.6791216543E+00 -0.5902025904E+01
H  -0.2171941543E+01  0.5986029490E+00 -0.5053562196E+01
H  -0.2147994158E+01  0.6017018754E+00 -0.6701204967E+01
O  -0.1065681650E+01  0.1370296986E+01  0.4466193757E+01
H  -0.2726888719E+00  0.1788639977E+01  0.3999209909E+01
H  -0.1852937066E+01  0.1431579148E+01  0.3816444087E+01
O   0.1745491473E+01 -0.1360864176E+01  0.5629902871E+01
H   0.2052637458E+01 -0.1230972639E+01  0.6576274282E+01
H   0.2519275837E+01 -0.1061639957E+01  0.5012447958E+01
O   0.3755769313E+01 -0.3727797068E+00  0.4116014774E+01
H   0.3583415241E+01  0.1890998713E+00  0.3297490215E+01
H   0.4184834482E+01  0.2737565663E+00  0.4794483809E+01
O  -0.3245196314E+01  0.3761112179E+01 -0.3165095083E+01
H  -0.3605965557E+01  0.3225977312E+01 -0.2367026219E+01
H  -0.3782142368E+01  0.3458935315E+01 -0.3964162701E+01
O  -0.1969133685E+01  0.5531759167E+01  0.3699955432E+01
H  -0.2355320588E+01  0.5829152220E+01  0.2837364322E+01
H  -0.9537443706E+00  0.5531672951E+01  0.3599210279E+01
O  -0.7822028115E+00 -0.5755824816E+01 -0.2303195500E+01
H  -0.1320509180E+01 -0.6333135744E+01 -0.2938134456E+01
H   0.1842671834E+00 -0.6002553656E+01 -0.2402617117E+01
         159
 Time step:           2
O   0.4774668650E+00  0.6424422495E+00  0.4824332767E-01
H   0.8737487179E+00 -0.3775774483E-01  0.7104350848E+00
H  -0.1635430862E+00  0.1185435471E+00 -0.5199390035E+00
O   0.2685959674E+01 -0.1074486468E+01 -0.1820625163E+01
H   0.2473404117E+01 -0.2068484978E+01 -0.1802692445E+01
H   0.2158109726E+01 -0.6842803156E+00 -0.2599770703E+01
O  -0.5055150807E+01  0.1060943911E+01  0.1117703045E+01
H  -0.5651270819E+01  0.3807662545E+00  0.1543286789E+01
H  -0.4316632281E+01  0.1289272295E+01  0.1804684127E+01
O   0.4038464879E+01  0.4791388111E+01 -0.7334707306E-01
H   0.3687678515E+01  0.3992114030E+01 -0.6412736277E+00
H   0.4899737269E+01  0.5094847427E+01 -0.4617471191E+00
O  -0.4492746495E+01  0.4967957009E+01  0.1782414476E+01
H  -0.3737961385E+01  0.4485591238E+01  0.1323866531E+01
H  -0.5060807428E+01  0.5365582466E+01  0.1069649520E+01
O   0.1724867385E+00  0.3272653528E+01  0.3056363431E+00
H   0.2405351219E+00  0.2253147227E+01  0.2286751499E+00
H   0.9220760111E+00  0.3582488791E+01  0.9278402448E+00
O   0.1348547029E+01 -0.3720151753E+01  0.3230273372E+00
H   0.2016642114E+01 -0.4432110112E+01  0.6913715813E+00
H   0.1643516590E+01 -0.3622724020E+01 -0.6903001435E+00
O  -0.2502877909E+01 -0.2043063221E+01  0.5316976834E+00
H  -0.2385176049E+01 -0.1784203375E+01  0.1502403473E+01
H  -0.2012054435E+01 -0.2945315148E+01  0.4136987787E+00
O   0.1887716907E+01  0.2282868008E+01 -0.4110993894E+01
H   0.9419653492E+00  0.2691725397E+01 -0.4072143698E+01
H   0.2396428370E+01  0.2739996480E+01 -0.3398011459E+01
O  -0.3085645072E+01  0.1996347790E+01  0.2749578843E+01
H  -0.3488308322E+01  0.2657358981E+01  0.3421236042E+01
H  -0.2746935198E+01  0.2544417800E+01  0.1958226474E+01
O   0.5052404998E+01 -0.3631776244E+01  0.3578668566E+00
H   0.4487934264E+01 -0.4417655739E+01  0.4384714730E+00
H   0.5087508191E+01 -0.3232889572E+01  0.1277170725E+01
O  -0.4066056090E+01  0.3923844612E+01  0.4300105663E+01
H  -0.3252170202E+01  0.4513636872E+01  0.4413006758E+01
H  -0.4535442402E+01  0.4351366571E+01  0.3536551357E+01
O   0.4109618286E+01  0.1983293789E+01  0.2502932531E+01
H   0.4627390344E+01  0.1667614478E+01  0.1651043089E+01
H   0.4757026830E+01  0.2536958968E+01  0.3022103408E+01
O   0.1317217707E+01 -0.3075324553E+00 -0.4079211449E+01
H   0.2947880466E+00 -0.1841182146E+00 -0.3944849949E+01
H   0.1645688471E+01  0.6165934796E+00 -0.4160958515E+01
O   0.4802181587E+01  0.1294359077E+01 -0.2877642290E+01
H   0.4611965017E+01  0.1059879138E+01 -0.3819479440E+01
H   0.5107563985E+01  0.4854196838E+00 -0.2382252891E+01
O   0.4581991523E+01 -0.2845757014E+01  0.2964404279E+01
H   0.4308931704E+01 -0.1932173134E+01  0.3388132402E+01
H   0.3929745827E+01 -0.3510631649E+01  0.3334159425E+01
O  -0.2699336027E+01 -0.3523049140E+00 -0.1601547476E+01
H  -0.3141154701E+01 -0.1059479381E+01 -0.2189882606E+01
H  -0.2569694607E+01 -0.8310566152E+00 -0.7138132797E+00
O  -0.2487967974E+01  0.3567582679E+01  0.6248274098E+00
H  -0.2896370944E+01  0.3082203181E+01 -0.1744021560E+00
H  -0.1496863611E+01  0.3609830912E+01  0.4515503909E+00
O  -0.4617138752E+01 -0.3038592811E+01  0.2122053028E+01
H  -0.4088638444E+01 -0.2814073492E+01  0.1286894729E+01
H  -0.4104548648E+01 -0.2599374515E+01  0.2884158218E+01
O  -0.4259598402E+01  0.1077284781E+00  0.5235425576E+01
H  -0.4124527589E+01  0.1104325221E+01  0.5129885473E+01
H  -0.5140901350E+01 -0.5131247228E-01  0.5698911135E+01
O   0.1230102032E+01  0.5004758440E+01 -0.2665358919E+01
H   0.1726040680E+01  0.5833261480E+01 -0.2901179793E+01
H   0.1510450118E+01  0.4633675644E+01 -0.1823770043E+01
O   0.1822728801E+00 -0.4870320953E+01  0.4428987905E+01
H  -0.2667736060E+00 -0.4889319380E+01  0.5332058543E+01
H  -0.3160424297E+00 -0.5487326943E+01  0.3799709583E+01
O  -0.1031001716E+01 -0.6612969808E+01  0.1687433966E+01
H  -0.1167972136E+01 -0.5764292793E+01  0.1175519490E+01
H  -0.1589076817E+01 -0.7324606803E+01  0.1314148740E+01
O  -0.3960278204E+01 -0.2521226957E+01 -0.2703935728E+01
H  -0.4289532820E+01 -0.2924087520E+01 -0.1809093333E+01
H  -0.4737793265E+01 -0.2446321280E+01 -0.3315708852E+01
O   0.2599970637E+01 -0.2621029980E+01 -0.4625906649E+01
H   0.2082380514E+01 -0.1749203695E+01 -0.4477397847E+01
H   0.2993537097E+01 -0.2592838334E+01 -0.5532838548E+01
O   0.2054560829E+01 -0.3719260915E+01 -0.2263245265E+01
H   0.2258470081E+01 -0.3336591009E+01 -0.3158750776E+01
H   0.1946151090E+01 -0.4727137649E+01 -0.2419729607E+01
O   0.1207380271E+01 -0.1336207870E+01  0.1692257282E+01
H   0.6999723563E+00 -0.1587086677E+01  0.2533294339E+01
H   0.1363232515E+01 -0.2192511637E+01  0.1195139341E+01
O  -0.1200291268E+01 -0.4419943284E+01  0.3642140027E-01
H  -0.1158727553E+01 -0.4906960640E+01 -0.8566802427E+00
H  -0.2504493104E+00 -0.4110767241E+01  0.2205675450E+00
O  -0.1057692421E+01 -0.3951277023E+01 -0.6507223319E+01
H  -0.1275714885E+01 -0.3881061419E+01 -0.5521441180E+01
H  -0.1425960501E+01 -0.3133831332E+01 -0.6959506181E+01
O   0.3008357092E+01 -0.5628271532E+01  0.1281840672E+01
H   0.3047321166E+01 -0.5328447981E+01  0.2225667264E+01
H   0.2674518693E+01 -0.6567408551E+01  0.1302076617E+01
O  -0.2824482473E+01 -0.1588469864E+01  0.3578736286E+01
H  -0.3288523984E+01 -0.9508227926E+00  0.4216871044E+01
H  -0.1855632094E+01 -0.1652728673E+01  0.3805091201E+01
O  -0.4561006655E+01  0.2549235331E+01 -0.5190905051E+01
H  -0.5441134004E+01  0.2316992935E+01 -0.5571548968E+01
H  -0.3895502976E+01  0.1858942053E+01 -0.5522770977E+01
O   0.5652936334E+01  0.1328490589E+01  0.4116675039E+00
H   0.6467780796E+01  0.1738296498E+01 -0.7148443489E-02
H   0.5457991148E+01  0.4949997783E+00 -0.1141965346E+00
O   0.1665255617E+01  0.1287278847E+01  0.6581873664E+01
H   0.1413785598E+01  0.5262676265E+00  0.5986872470E+01
H   0.7820511710E+00  0.1646081691E+01  0.6957264283E+01
O  -0.3901787307E+01  0.2048834061E+01 -0.1123290696E+01
H  -0.3430285750E+01  0.1183082182E+01 -0.1411233372E+01
H  -0.4528759709E+01  0.1755190376E+01 -0.3481375042E+00
O   0.2960353528E+01  0.2747658242E+01 -0.1451514438E+01
H   0.3673074819E+01  0.2150040356E+01 -0.1853702805E+01
H   0.2237768923E+01  0.2171451279E+01 -0.1051525236E+01
O  -0.6436435876E+00  0.3266757899E+01 -0.3541315005E+01
H  -0.5244442876E-01  0.4040349511E+01 -0.3183392071E+01
H  -0.1610963359E+01  0.3595844240E+01 -0.3425985589E+01
O  -0.1214141794E+01  0.6213504694E+00 -0.3673872883E+01
H  -0.9964102378E+00  0.1581653417E+01 -0.3590533143E+01
H  -0.1730092091E+01  0.3165889254E+00 -0.2829594096E+01
O   0.6906343240E+00  0.5565621363E+01  0.3336825950E+01
H   0.1309259817E+01  0.6028380447E+01  0.3975979665E+01
H   0.1245785863E+01  0.4953060895E+01  0.2748431582E+01
O   0.2331248298E+01  0.3983045412E+01  0.1848074942E+01
H   0.2841132341E+01  0.3199939463E+01  0.2138605314E+01
H   0.2953311502E+01  0.4431425546E+01  0.1167839172E+01
O   0.2872127069E+01 -0.4861121495E+01  0.3879522313E+01
H   0.3321441251E+01 -0.5196275292E+01  0.4656111426E+01
H   0.1864795127E+01 -0.4777517480E+01  0.4088603159E+01
O  -0.1762879981E+01 -0.3673259030E+01 -0.3910144439E+01
H  -0.2523857536E+01 -0.3198307384E+01 -0.3472767520E+01
H  -0.1301900643E+01 -0.4246390678E+01 -0.3232548928E+01
O  -0.1381302185E+00 -0.2170900317E+01  0.3918236353E+01
H   0.4906358895E+00 -0.1757616514E+01  0.4625938734E+01
H  -0.4842358718E-01 -0.3150587917E+01  0.4021216310E+01
O   0.1865157086E+01 -0.6420842625E+01 -0.2685668076E+01
H   0.2138515957E+01 -0.6670163426E+01 -0.3613572043E+01
H   0.2547312898E+01 -0.6765555002E+01 -0.2037974527E+01
O   0.5234206340E+01 -0.8617787126E+00 -0.1172810785E+01
H   0.4239570391E+01 -0.9124586950E+00 -0.1354956034E+01
H   0.5480436888E+01 -0.1770183438E+01 -0.7912130543E+00
O  -0.9708650134E+00  0.1787954781E+01  0.7117647856E+01
H  -0.1802751783E+01  0.2223109780E+01  0.7417380911E+01
H  -0.1092009925E+01  0.1589543924E+01  0.6126603933E+01
O  -0.2752721745E+01  0.6800073275E+00 -0.5900601660E+01
H  -0.2167320418E+01  0.5974563553E+00 -0.5052606927E+01
H  -0.2162329784E+01  0.6150713119E+00 -0.6707159482E+01
O  -0.1066479041E+01  0.1371463158E+01  0.4464821212E+01
H  -0.2754007850E+00  0.1792518316E+01  0.3994901066E+01
H  -0.1851834634E+01  0.1440101766E+01  0.3820797248E+01
O   0.1743241831E+01 -0.1361053334E+01  0.5629071447E+01
H   0.2059724315E+01 -0.1223041600E+01  0.6562216089E+01
H   0.2522537672E+01 -0.1058278761E+01  0.5014264513E+01
O   0.3754057763E+01 -0.3719996143E+00  0.4113825391E+01
H   0.3590019087E+01  0.1879025606E+00  0.3305661417E+01
H   0.4188204296E+01  0.2787731122E+00  0.4801935562E+01
O  -0.3246066291E+01  0.3761935463E+01 -0.3167240593E+01
H  -0.3606686177E+01  0.3226178478E+01 -0.2369500697E+01
H  -0.3777383930E+01  0.3464718946E+01 -0.3954322828E+01
O  -0.1966132106E+01  0.5534609335E+01  0.3699671644E+01
H  -0.2342365583E+01  0.5837331682E+01  0.2854080767E+01
H  -0.9598786517E+00  0.5527706426E+01  0.3600973465E+01
O  -0.7816248432E+00 -0.5756078806E+01 -0.2303653105E+01
H  -0.1327142168E+01 -0.6319047639E+01 -0.2947680473E+01
H   0.1597517352E+00 -0.5989901728E+01 -0.2404630958E+01
         159
 Time step:           3
O   0.4801800845E+00  0.6401488159E+00  0.5091529045E-01
H   0.8715072840E+00 -0.4247172010E-01  0.7135626440E+00
H  -0.1646239917E+00  0.1183578975E+00 -0.5149086158E+00
O   0.2685964593E+01 -0.1074367050E+01 -0.1820432221E+01
H   0.2477240870E+01 -0.2069187842E+01 -0.1803097617E+01
H   0.2161278440E+01 -0.6847337466E+00 -0.2601997620E+01
O  -0.5056861778E+01  0.1063376309E+01  0.1121513683E+01
H  -0.5655115016E+01  0.3854290371E+00  0.1535199526E+01
H  -0.4310968942E+01  0.1275109827E+01  0.1812167060E+01
O   0.4038321128E+01  0.4791122446E+01 -0.7266616319E-01
H   0.3687647616E+01  0.3985312214E+01 -0.6411732129E+00
H   0.4891800175E+01  0.5096123341E+01 -0.4582738244E+00
O  -0.4491877362E+01  0.4970241210E+01  0.1781877508E+01
H  -0.3743641667E+01  0.4498191940E+01  0.1328586357E+01
H  -0.5050829606E+01  0.5359874617E+01  0.1072286588E+01
O   0.1749573167E+00  0.3272190160E+01  0.3044691197E+00
H   0.2287675788E+00  0.2258777952E+01  0.2368235260E+00
H   0.9144696839E+00  0.3576846835E+01  0.9315996600E+00
O   0.1345080232E+01 -0.3721811737E+01  0.3223444588E+00
H   0.2016260438E+01 -0.4441536626E+01  0.6771174123E+00
H   0.1645216639E+01 -0.3631066514E+01 -0.6991540978E+00
O  -0.2502007607E+01 -0.2046118971E+01  0.5312350973E+00
H  -0.2393653159E+01 -0.1800305178E+01  0.1496783367E+01
H  -0.2007955212E+01 -0.2945558189E+01  0.4263073158E+00
O   0.1887160765E+01  0.2283331161E+01 -0.4110213099E+01
H   0.9450024783E+00  0.2690484411E+01 -0.4066260438E+01
H   0.2390258193E+01  0.2733505096E+01 -0.3410066909E+01
O  -0.3086386100E+01  0.1996507742E+01  0.2747354498E+01
H  -0.3489976810E+01  0.2643211985E+01  0.3421549872E+01
H  -0.2751297600E+01  0.2536375620E+01  0.1959316548E+01
O   0.5049821870E+01 -0.3635790053E+01  0.3555302102E+00
H   0.4501706291E+01 -0.4407722112E+01  0.4447478463E+00
H   0.5091602720E+01 -0.3236218700E+01  0.1260433859E+01
O  -0.4066691281E+01  0.3924683851E+01  0.4299286545E+01
H  -0.3263442403E+01  0.4508325736E+01  0.4421274994E+01
H  -0.4527589949E+01  0.4353872125E+01  0.3551998695E+01
O   0.4110078385E+01  0.1981801549E+01  0.2501873367E+01
H   0.4636301697E+01  0.1657803171E+01  0.1656975499E+01
H   0.4746081481E+01  0.2537393019E+01  0.3007923480E+01
O   0.1316256507E+01 -0.3052380409E+00 -0.4080466974E+01
H   0.2962594713E+00 -0.1849139472E+00 -0.3931731017E+01
H   0.1641355301E+01  0.5989716059E+00 -0.4146741865E+01
O   0.4802982330E+01  0.1292056917E+01 -0.2877895846E+01
H   0.4620668058E+01  0.1059256680E+01 -0.3808929792E+01
H   0.5096992345E+01  0.4950819959E+00 -0.2381608265E+01
O   0.4580528180E+01 -0.2847572778E+01  0.2963593151E+01
H   0.4292834652E+01 -0.1939280351E+01  0.3399193015E+01
H   0.3937993587E+01 -0.3500704548E+01  0.3337090066E+01
O  -0.2700450133E+01 -0.3512672495E+00 -0.1599080199E+01
H  -0.3135486889E+01 -0.1054670617E+01 -0.2186270234E+01
H  -0.2560798540E+01 -0.8275662515E+00 -0.7209927572E+00
O  -0.2488343165E+01  0.3566481489E+01  0.6236663225E+00
H  -0.2886643685E+01  0.3081973859E+01 -0.1724664913E+00
H  -0.1510446279E+01  0.3620953160E+01  0.4523932728E+00
O  -0.4620734006E+01 -0.3034799203E+01  0.2124002881E+01
H  -0.4084195780E+01 -0.2827723875E+01  0.1294743702E+01
H  -0.4115867378E+01 -0.2599830802E+01  0.2882702826E+01
O  -0.4257873960E+01  0.1107513440E+00  0.5237783857E+01
H  -0.4128198952E+01  0.1100291083E+01  0.5129883146E+01
H  -0.5133698878E+01 -0.3705704992E-01  0.5700318523E+01
O   0.1232202626E+01  0.5004455228E+01 -0.2665602755E+01
H   0.1721549740E+01  0.5825433684E+01 -0.2901864200E+01
H   0.1495573048E+01  0.4638281308E+01 -0.1835135066E+01
O   0.1820136642E+00 -0.4869618543E+01  0.4427254577E+01
H  -0.2546553233E+00 -0.4886328638E+01  0.5328732314E+01
H  -0.3105219630E+00 -0.5494418833E+01  0.3812193111E+01
O  -0.1032271351E+01 -0.6611317346E+01  0.1684821723E+01
H  -0.1161773098E+01 -0.5765855491E+01  0.1197847892E+01
H  -0.1576396299E+01 -0.7309215380E+01  0.1319299394E+01
O  -0.3959012312E+01 -0.2519845812E+01 -0.2703786976E+01
H  -0.4289356783E+01 -0.2927262404E+01 -0.1810636677E+01
H  -0.4732539247E+01 -0.2441726058E+01 -0.3300931231E+01
O   0.2598507914E+01 -0.2621391655E+01 -0.4630102142E+01
H   0.2088190620E+01 -0.1758213889E+01 -0.4469332400E+01
H   0.2985087166E+01 -0.2581225639E+01 -0.5520998021E+01
O   0.2055300007E+01 -0.3719811951E+01 -0.2262583984E+01
H   0.2249266412E+01 -0.3345539881E+01 -0.3143267734E+01
H   0.1946452985E+01 -0.4724707637E+01 -0.2411807590E+01
O   0.1204018086E+01 -0.1335577976E+01  0.1693552186E+01
H   0.7112179430E+00 -0.1593191280E+01  0.2529334036E+01
H   0.1357293553E+01 -0.2179439706E+01  0.1205398278E+01
O  -0.1194319498E+01 -0.4419573748E+01  0.3466525820E-01
H  -0.1163631871E+01 -0.4906276812E+01 -0.8445020693E+00
H  -0.2537664427E+00 -0.4132119230E+01  0.2171505740E+00
O  -0.1053734473E+01 -0.3954240580E+01 -0.6508157963E+01
H  -0.1267281413E+01 -0.3890724034E+01 -0.5533610546E+01
H  -0.1420295567E+01 -0.3135065425E+01 -0.6945062410E+01
O   0.3008042239E+01 -0.5629178239E+01  0.1284743936E+01
H   0.3042559362E+01 -0.5340737580E+01  0.2207561704E+01
H   0.2673444225E+01 -0.6554663111E+01  0.1304553705E+01
O  -0.2823594225E+01 -0.1586051942E+01  0.3578642075E+01
H  -0.3289885801E+01 -0.9572658896E+00  0.4209267212E+01
H  -0.1866665503E+01 -0.1652698985E+01  0.3797002624E+01
O  -0.4562209478E+01  0.2547549024E+01 -0.5191510860E+01
H  -0.5432526221E+01  0.2311834974E+01 -0.5563665239E+01
H  -0.3903701699E+01  0.1866559538E+01 -0.5530174375E+01
O   0.5654888656E+01  0.1327292962E+01  0.4120363812E+00
H   0.6467705325E+01  0.1728626972E+01  0.5667681557E-04
H   0.5463392100E+01  0.5044179113E+00 -0.1065739572E+00
O   0.1666503702E+01  0.1286453664E+01  0.6583189169E+01
H   0.1420420654E+01  0.5327514516E+00  0.5990855059E+01
H   0.7855398501E+00  0.1643172017E+01  0.6951610708E+01
O  -0.3899351598E+01  0.2047913634E+01 -0.1122146096E+01
H  -0.3424876193E+01  0.1189364723E+01 -0.1410905831E+01
H  -0.4528416876E+01  0.1751237011E+01 -0.3530033423E+00
O   0.2957992018E+01  0.2745210218E+01 -0.1450396982E+01
H   0.3667982883E+01  0.2157663081E+01 -0.1840500123E+01
H   0.2235215925E+01  0.2180919851E+01 -0.1059715418E+01
O  -0.6476270131E+00  0.3270513612E+01 -0.3545500030E+01
H  -0.5545600265E-01  0.4042528877E+01 -0.3190613556E+01
H  -0.1604787224E+01  0.3605030155E+01 -0.3430615666E+01
O  -0.1215037731E+01  0.6198019248E+00 -0.3673053907E+01
H  -0.9950420076E+00  0.1561891214E+01 -0.3597190478E+01
H  -0.1722320799E+01  0.3114798623E+00 -0.2827525321E+01
O   0.6879801509E+00  0.5565940026E+01  0.3336244136E+01
H   0.1303261742E+01  0.6010444926E+01  0.3979079626E+01
H   0.1232974577E+01  0.4955328157E+01  0.2755619606E+01
O   0.2332041290E+01  0.3983239945E+01  0.1849566836E+01
H   0.2839485989E+01  0.3225244343E+01  0.2130227993E+01
H   0.2947637443E+01  0.4423972773E+01  0.1169506859E+01
O   0.2872430303E+01 -0.4860862707E+01  0.3881446383E+01
H   0.3314802514E+01 -0.5189269955E+01  0.4632874589E+01
H   0.1869299303E+01 -0.4773283446E+01  0.4088437317E+01
O  -0.1763281402E+01 -0.3672292816E+01 -0.3908972002E+01
H  -0.2517436136E+01 -0.3212166751E+01 -0.3478878589E+01
H  -0.1307827026E+01 -0.4243417745E+01 -0.3244916279E+01
O  -0.1364106746E+00 -0.2172736758E+01  0.3917817011E+01
H   0.4904583641E+00 -0.1764816553E+01  0.4623538162E+01
H  -0.5594501052E-01 -0.3134699663E+01  0.4019041356E+01
O   0.1866211552E+01 -0.6420259053E+01 -0.2686567889E+01
H   0.2140628971E+01 -0.6658909051E+01 -0.3604142443E+01
H   0.2541865196E+01 -0.6756705261E+01 -0.2044492156E+01
O   0.5232124547E+01 -0.8648730774E+00 -0.1175416265E+01
H   0.4250706206E+01 -0.9085055666E+00 -0.1349325019E+01
H   0.5474597557E+01 -0.1760770879E+01 -0.7814284603E+00
O  -0.9700800766E+00  0.1789917611E+01  0.7116765827E+01
H  -0.1793650548E+01  0.2203493310E+01  0.7403672219E+01
H  -0.1100355384E+01  0.1604588595E+01  0.6138450544E+01
O  -0.2753517974E+01  0.6810917350E+00 -0.5898787199E+01
H  -0.2164069195E+01  0.5966120510E+00 -0.5056117251E+01
H  -0.2184408139E+01  0.6330611803E+00 -0.6709376736E+01
O  -0.1067507167E+01  0.1373307330E+01  0.4462459830E+01
H  -0.2852876918E+00  0.1795153599E+01  0.3992006260E+01
H  -0.1845872104E+01  0.1452467806E+01  0.3829802551E+01
O   0.1741195260E+01 -0.1361107108E+01  0.5628276260E+01
H   0.2065667036E+01 -0.1215146287E+01  0.6542972869E+01
H   0.2522145928E+01 -0.1055994705E+01  0.5019088100E+01
O   0.3752755703E+01 -0.3709930387E+00  0.4112109792E+01
H   0.3596288592E+01  0.1855052317E+00  0.3315218014E+01
H   0.4188023894E+01  0.2786263479E+00  0.4803425869E+01
O  -0.3246922763E+01  0.3762431031E+01 -0.3168801644E+01
H  -0.3605654071E+01  0.3228453948E+01 -0.2375343975E+01
H  -0.3772472062E+01  0.3469535800E+01 -0.3944637227E+01
O  -0.1963553373E+01  0.5536994175E+01  0.3699322013E+01
H  -0.2330646400E+01  0.5843107040E+01  0.2869867194E+01
H  -0.9681848477E+00  0.5524534368E+01  0.3602329603E+01
O  -0.7812632994E+00 -0.5756482980E+01 -0.2304283692E+01
H  -0.1329787881E+01 -0.6303272095E+01 -0.2952849481E+01
H   0.1362762763E+00 -0.5978603346E+01 -0.2406706699E+01
         159
 Time step:           4
O   0.4828757013E+00  0.6379041346E+00  0.5354991714E-01
H   0.8689369038E+00 -0.4741224262E-01  0.7165034579E+00
H  -0.1655950242E+00  0.1180615569E+00 -0.5098719116E+00
O   0.2685953296E+01 -0.1074247576E+01 -0.1820263287E+01
H   0.2480253767E+01 -0.2069711556E+01 -0.1803723667E+01
H   0.2163605418E+01 -0.6852345923E+00 -0.2603701720E+01
O  -0.5058949124E+01  0.1066235333E+01  0.1126624940E+01
H  -0.5660594799E+01  0.3923054450E+00  0.1522604508E+01
H  -0.4305216358E+01  0.1258622700E+01  0.1818265219E+01
O   0.4038341240E+01  0.4790658610E+01 -0.7213714689E-01
H   0.3687891119E+01  0.3977612194E+01 -0.6389997407E+00
H   0.4881241557E+01  0.5099295721E+01 -0.4517081361E+00
O  -0.4491294796E+01  0.4972250231E+01  0.1781228295E+01
H  -0.3750207612E+01  0.4509876047E+01  0.1333423987E+01
H  -0.5040084774E+01  0.5353396481E+01  0.1077168523E+01
O   0.1775868349E+00  0.3271640084E+01  0.3034619585E+00
H   0.2173849674E+00  0.2267900952E+01  0.2453452374E+00
H   0.9040199694E+00  0.3569465755E+01  0.9324141938E+00
O   0.1342390901E+01 -0.3723504194E+01  0.3214619680E+00
H   0.2012193851E+01 -0.4446064066E+01  0.6631802639E+00
H   0.1644557048E+01 -0.3638779666E+01 -0.7009672801E+00
O  -0.2501030669E+01 -0.2049198886E+01  0.5310339789E+00
H  -0.2402175867E+01 -0.1815973393E+01  0.1487918932E+01
H  -0.2006329030E+01 -0.2941513198E+01  0.4381439339E+00
O   0.1886351465E+01  0.2284036866E+01 -0.4109323556E+01
H   0.9532738788E+00  0.2687036359E+01 -0.4060072258E+01
H   0.2382330516E+01  0.2725623380E+01 -0.3423813480E+01
O  -0.3087204337E+01  0.1996828070E+01  0.2744958874E+01
H  -0.3490132212E+01  0.2626923252E+01  0.3418644987E+01
H  -0.2757271352E+01  0.2526374108E+01  0.1963552276E+01
O   0.5048034186E+01 -0.3638548225E+01  0.3539800432E+00
H   0.4511501334E+01 -0.4400371147E+01  0.4494305668E+00
H   0.5093826360E+01 -0.3239657638E+01  0.1246863064E+01
O  -0.4067207346E+01  0.3925578324E+01  0.4298554309E+01
H  -0.3276120396E+01  0.4501590032E+01  0.4427905766E+01
H  -0.4519303669E+01  0.4355418327E+01  0.3567051269E+01
O   0.4110973236E+01  0.1980008245E+01  0.2500458861E+01
H   0.4644371845E+01  0.1648132247E+01  0.1668823320E+01
H   0.4730045187E+01  0.2535440019E+01  0.2988288795E+01
O   0.1315177534E+01 -0.3034616754E+00 -0.4081407741E+01
H   0.3024132332E+00 -0.1857422371E+00 -0.3921913874E+01
H   0.1637825082E+01  0.5858666690E+00 -0.4135478183E+01
O   0.4803650891E+01  0.1290078967E+01 -0.2878194568E+01
H   0.4628420084E+01  0.1058950190E+01 -0.3797223314E+01
H   0.5087579478E+01  0.5041787650E+00 -0.2382532348E+01
O   0.4579141174E+01 -0.2848774995E+01  0.2963213378E+01