         159
 Time step:           1
O   0.4704484883E+00  0.6484062615E+00  0.4072873142E-01
H   0.8806308017E+00 -0.2565512351E-01  0.7007294280E+00
H  -0.1534903914E+00  0.1151102040E+00 -0.5376226151E+00
O   0.2686471244E+01 -0.1073888653E+01 -0.1820514050E+01
H   0.2469678326E+01 -0.2066991164E+01 -0.1803702855E+01
H   0.2149196550E+01 -0.6764783493E+00 -0.2589510222E+01
O  -0.5052990168E+01  0.1058670959E+01  0.1112976798E+01
H  -0.5645962611E+01  0.3769903093E+00  0.1554131154E+01
H  -0.4318662601E+01  0.1304406113E+01  0.1784666201E+01
O   0.4038986162E+01  0.4792331684E+01 -0.7822803795E-01
H   0.3687978757E+01  0.4005574127E+01 -0.6349871450E+00
H   0.4918689349E+01  0.5090111339E+01 -0.4722982134E+00
O  -0.4496311171E+01  0.4962465390E+01  0.1783203681E+01
H  -0.3735497194E+01  0.4468709850E+01  0.1327686490E+01
H  -0.5075867947E+01  0.5373143042E+01  0.1086611889E+01
O   0.1682178317E+00  0.3274456680E+01  0.3081479994E+00
H   0.2575690265E+00  0.2264138645E+01  0.2122196185E+00
H   0.9200053683E+00  0.3576078530E+01  0.9053891867E+00
O   0.1357645625E+01 -0.3717408026E+01  0.3231616443E+00
H   0.2020994915E+01 -0.4417302727E+01  0.7085443162E+00
H   0.1633324781E+01 -0.3600742246E+01 -0.6742909612E+00
O  -0.2506555961E+01 -0.2036484691E+01  0.5317192926E+00
H  -0.2391557573E+01 -0.1753685983E+01  0.1490541581E+01
H  -0.2031561727E+01 -0.2937778333E+01  0.3793583988E+00
O   0.1889187101E+01  0.2284452265E+01 -0.4114550627E+01
H   0.9595827357E+00  0.2687684861E+01 -0.4086719785E+01
H   0.2404545476E+01  0.2738604998E+01 -0.3372806929E+01
O  -0.3082634817E+01  0.1996528717E+01  0.2753278781E+01
H  -0.3488791689E+01  0.2680245396E+01  0.3408544074E+01
H  -0.2752222973E+01  0.2549460489E+01  0.1955627691E+01
O   0.5060352683E+01 -0.3622948294E+01  0.3625565407E+00
H   0.4451309973E+01 -0.4440449539E+01  0.4082840711E+00
H   0.5063006114E+01 -0.3220829337E+01  0.1308348187E+01
O  -0.4063417425E+01  0.3923861029E+01  0.4301856952E+01
H  -0.3244024992E+01  0.4515659135E+01  0.4391507456E+01
H  -0.4551675687E+01  0.4335984926E+01  0.3507708528E+01
O   0.4112985030E+01  0.1986884715E+01  0.2506268127E+01
H   0.4620819263E+01  0.1687558829E+01  0.1647762732E+01
H   0.4761264274E+01  0.2539939952E+01  0.3024769390E+01
O   0.1316641732E+01 -0.3125590343E+00 -0.4074253385E+01
H   0.3037365479E+00 -0.1828427347E+00 -0.3968375503E+01
H   0.1645644894E+01  0.6421229105E+00 -0.4193734265E+01
O   0.4802961810E+01  0.1299473355E+01 -0.2880578251E+01
H   0.4603627585E+01  0.1069517908E+01 -0.3842806008E+01
H   0.5130456610E+01  0.4780673878E+00 -0.2394342120E+01
O   0.4584075092E+01 -0.2844770089E+01  0.2968507037E+01
H   0.4353696403E+01 -0.1935431261E+01  0.3349109720E+01
H   0.3913997855E+01 -0.3540367105E+01  0.3329519721E+01
O  -0.2693091850E+01 -0.3559661012E+00 -0.1608185177E+01
H  -0.3145720255E+01 -0.1066914622E+01 -0.2178921112E+01
H  -0.2583106056E+01 -0.8306847548E+00 -0.7086434519E+00
O  -0.2487932427E+01  0.3574293478E+01  0.6269501225E+00
H  -0.2916827300E+01  0.3086768675E+01 -0.1724025024E+00
H  -0.1476795918E+01  0.3588381020E+01  0.4461940833E+00
O  -0.4612862546E+01 -0.3047651928E+01  0.2123604502E+01
H  -0.4104343613E+01 -0.2804299783E+01  0.1296392178E+01
H  -0.4084914845E+01 -0.2594833837E+01  0.2866400854E+01
O  -0.4264586540E+01  0.1026243007E+00  0.5232652967E+01
H  -0.4114630214E+01  0.1104912492E+01  0.5138232615E+01
H  -0.5133213745E+01 -0.7110152176E-01  0.5698612291E+01
O   0.1223066850E+01  0.5005098316E+01 -0.2662820034E+01
H   0.1738303438E+01  0.5857329736E+01 -0.2896744996E+01
H   0.1555150786E+01  0.4622965132E+01 -0.1792359018E+01
O   0.1796444802E+00 -0.4879674803E+01  0.4434835860E+01
H  -0.3071784637E+00 -0.4894512129E+01  0.5328427329E+01
H  -0.3344092729E+00 -0.5447413045E+01  0.3781777006E+01
O  -0.1026987854E+01 -0.6615290553E+01  0.1686497996E+01
H  -0.1169730346E+01 -0.5771242766E+01  0.1145096931E+01
H  -0.1612631925E+01 -0.7336562545E+01  0.1315226209E+01
O  -0.3961753794E+01 -0.2524158488E+01 -0.2703029315E+01
H  -0.4282811869E+01 -0.2893753216E+01 -0.1817233749E+01
H  -0.4741693334E+01 -0.2464245491E+01 -0.3355573458E+01
O   0.2605783000E+01 -0.2620598722E+01 -0.4618168788E+01
H   0.2091408342E+01 -0.1747037498E+01 -0.4496083398E+01
H   0.2990108158E+01 -0.2610732065E+01 -0.5537793274E+01
O   0.2054280131E+01 -0.3718964153E+01 -0.2263527135E+01
H   0.2275968418E+01 -0.3313746212E+01 -0.3189645154E+01
H   0.1952326657E+01 -0.4725331280E+01 -0.2444566529E+01
O   0.1216192101E+01 -0.1338517116E+01  0.1687391860E+01
H   0.6927534744E+00 -0.1583277455E+01  0.2534470101E+01
H   0.1374806893E+01 -0.2202079259E+01  0.1173905257E+01
O  -0.1206593674E+01 -0.4421472373E+01  0.3916024945E-01
H  -0.1147697553E+01 -0.4889129502E+01 -0.8619991995E+00
H  -0.2569442490E+00 -0.4088644660E+01  0.2184075896E+00
O  -0.1066374112E+01 -0.3943623224E+01 -0.6508069528E+01
H  -0.1290021020E+01 -0.3845538094E+01 -0.5523427691E+01
H  -0.1435525780E+01 -0.3138903670E+01 -0.6986441731E+01
O   0.3008097342E+01 -0.5627260187E+01  0.1279233135E+01
H   0.3058998234E+01 -0.5308210247E+01  0.2250056865E+01
H   0.2687903035E+01 -0.6578859538E+01  0.1290727552E+01
O  -0.2828934660E+01 -0.1595372923E+01  0.3579146049E+01
H  -0.3275765769E+01 -0.9366382258E+00  0.4240070512E+01
H  -0.1841611941E+01 -0.1659543269E+01  0.3823594967E+01
O  -0.4559112332E+01  0.2552210437E+01 -0.5190311728E+01
H  -0.5459583548E+01  0.2330684327E+01 -0.5596891366E+01
H  -0.3883767160E+01  0.1846151243E+01 -0.5508498236E+01
O   0.5650616901E+01  0.1329956478E+01  0.4110283511E+00
H   0.6434816716E+01  0.1761283720E+01 -0.2235749179E-01
H   0.5451627643E+01  0.4948376606E+00 -0.1314716629E+00
O   0.1660621954E+01  0.1290615726E+01  0.6578505392E+01
H   0.1401174576E+01  0.5336248512E+00  0.5980648891E+01
H   0.7957908792E+00  0.1655168102E+01  0.6966267138E+01
O  -0.3910417905E+01  0.2048770311E+01 -0.1125893135E+01
H  -0.3459523226E+01  0.1197442841E+01 -0.1408155676E+01
H  -0.4511634973E+01  0.1788487836E+01 -0.3488034585E+00
O   0.2962909741E+01  0.2748995496E+01 -0.1456250367E+01
H   0.3676919077E+01  0.2134686497E+01 -0.1880520232E+01
H   0.2256335150E+01  0.2163479091E+01 -0.1040176598E+01
O  -0.6355013999E+00  0.3258405334E+01 -0.3533661697E+01
H  -0.5840689959E-01  0.4018343765E+01 -0.3168687390E+01
H  -0.1624645172E+01  0.3581065253E+01 -0.3410527651E+01
O  -0.1213107017E+01  0.6244193560E+00 -0.3673041332E+01
H  -0.1005285295E+01  0.1625582975E+01 -0.3580897481E+01
H  -0.1740927929E+01  0.3401043736E+00 -0.2868825480E+01
O   0.6941528993E+00  0.5565886493E+01  0.3335329621E+01
H   0.1323975820E+01  0.6043142470E+01  0.3959521272E+01
H   0.1261422842E+01  0.4959579432E+01  0.2732464744E+01
O   0.2332920009E+01  0.3980894354E+01  0.1843314420E+01
H   0.2841127111E+01  0.3156256346E+01  0.2153465049E+01
H   0.2963045716E+01  0.4441913625E+01  0.1191676953E+01
O   0.2868961703E+01 -0.4861415180E+01  0.3875273941E+01
H   0.3324932505E+01 -0.5203699458E+01  0.4700568997E+01
H   0.1875039721E+01 -0.4790261502E+01  0.4091679068E+01
O  -0.1766267952E+01 -0.3676835958E+01 -0.3910665078E+01
H  -0.2527745598E+01 -0.3175898399E+01 -0.3459788917E+01
H  -0.1294934797E+01 -0.4245607463E+01 -0.3224417145E+01
O  -0.1421778079E+00 -0.2167538212E+01  0.3918606551E+01
H   0.4757818225E+00 -0.1743312155E+01  0.4614082457E+01
H  -0.3897156539E-01 -0.3166042002E+01  0.4023100954E+01
O   0.1864787135E+01 -0.6424168550E+01 -0.2682287215E+01
H   0.2128915665E+01 -0.6686632758E+01 -0.3614810927E+01
H   0.2544145316E+01 -0.6773477685E+01 -0.2026761854E+01
O   0.5236931514E+01 -0.8558306212E+00 -0.1166137674E+01
H   0.4228847845E+01 -0.9261923819E+00 -0.1373322317E+01
H   0.5474520180E+01 -0.1771075348E+01 -0.8111597498E+00
O  -0.9720257316E+00  0.1785307065E+01  0.7117712438E+01
H  -0.1791702703E+01  0.2250238810E+01  0.7435028843E+01
H  -0.1082145094E+01  0.1568514760E+01  0.6112801675E+01
O  -0.2752447214E+01  0.6771385046E+00 -0.5901439853E+01
H  -0.2178615199E+01  0.5974567512E+00 -0.5055285445E+01
H  -0.2138235788E+01  0.5997452418E+00 -0.6694810405E+01
O  -0.1064001651E+01  0.1368264841E+01  0.4468811084E+01
H  -0.2846768770E+00  0.1781288301E+01  0.4008584133E+01
H  -0.1854428436E+01  0.1428995122E+01  0.3821438790E+01
O   0.1745588952E+01 -0.1361648841E+01  0.5632584417E+01
H   0.2044154022E+01 -0.1247647227E+01  0.6582950788E+01
H   0.2507675325E+01 -0.1056574807E+01  0.5021578947E+01
O   0.3756531297E+01 -0.3714731055E+00  0.4120175840E+01
H   0.3572506423E+01  0.1790749282E+00  0.3291875302E+01
H   0.4162185995E+01  0.2699415546E+00  0.4780085273E+01
O  -0.3243348846E+01  0.3762137913E+01 -0.3158682665E+01
H  -0.3585642907E+01  0.3226714483E+01 -0.2363391178E+01
H  -0.3799792930E+01  0.3448014802E+01 -0.3978052240E+01
O  -0.1971576766E+01  0.5529759765E+01  0.3701883409E+01
H  -0.2358721463E+01  0.5832636026E+01  0.2834348510E+01
H  -0.9523879264E+00  0.5547579907E+01  0.3608383966E+01
O  -0.7797374300E+00 -0.5755707397E+01 -0.2304384734E+01
H  -0.1310094443E+01 -0.6338486480E+01 -0.2926623820E+01
H   0.2007338281E+00 -0.6022941909E+01 -0.2393462996E+01
         159
 Time step:           2
O   0.4692692210E+00  0.6493112646E+00  0.3905687103E-01
H   0.8837454968E+00 -0.2277479389E-01  0.6983890620E+00
H  -0.1463865046E+00  0.1119295368E+00 -0.5443672485E+00
O   0.2687033086E+01 -0.1073054270E+01 -0.1819915382E+01
H   0.2477215393E+01 -0.2067678000E+01 -0.1804600007E+01
H   0.2150354090E+01 -0.6697443998E+00 -0.2586251437E+01
O  -0.5053399865E+01  0.1060877877E+01  0.1112845186E+01
H  -0.5644472534E+01  0.3770110107E+00  0.1561724254E+01
H  -0.4307904539E+01  0.1293802670E+01  0.1780929204E+01
O   0.4038684597E+01  0.4792792683E+01 -0.8004607203E-01
H   0.3687356855E+01  0.4005019218E+01 -0.6338384989E+00
H   0.4922576053E+01  0.5085644828E+01 -0.4795037141E+00
O  -0.4497085987E+01  0.4962452680E+01  0.1783619551E+01
H  -0.3736923897E+01  0.4475968103E+01  0.1336883023E+01
H  -0.5077024522E+01  0.5374234845E+01  0.1096144975E+01
O   0.1683770930E+00  0.3275691279E+01  0.3076914322E+00
H   0.2500137979E+00  0.2273212194E+01  0.2109630927E+00
H   0.9132435858E+00  0.3564410839E+01  0.9011741008E+00
O   0.1359864014E+01 -0.3717182949E+01  0.3225190619E+00
H   0.2036876383E+01 -0.4431903658E+01  0.7023632936E+00
H   0.1630783225E+01 -0.3591026549E+01 -0.6927251708E+00
O  -0.2509463391E+01 -0.2034885590E+01  0.5298207431E+00
H  -0.2414693508E+01 -0.1749429329E+01  0.1480280593E+01
H  -0.2038051497E+01 -0.2943585413E+01  0.3660285829E+00
O   0.1889920228E+01  0.2286112842E+01 -0.4116586313E+01
H   0.9658959183E+00  0.2688249007E+01 -0.4087672301E+01
H   0.2405818300E+01  0.2728873882E+01 -0.3368651531E+01
O  -0.3081417982E+01  0.1996414814E+01  0.2752632935E+01
H  -0.3496004688E+01  0.2679003326E+01  0.3406720102E+01
H  -0.2760183517E+01  0.2544910906E+01  0.1947187736E+01
O   0.5062650891E+01 -0.3623263776E+01  0.3612866627E+00
H   0.4441481675E+01 -0.4447415112E+01  0.3911883729E+00
H   0.5049370574E+01 -0.3210982333E+01  0.1310476330E+01
O  -0.4062601778E+01  0.3925057097E+01  0.4301898124E+01
H  -0.3250779465E+01  0.4513956629E+01  0.4392854896E+01
H  -0.4555536607E+01  0.4331590673E+01  0.3507853012E+01
O   0.4116001219E+01  0.1987940302E+01  0.2507990693E+01
H   0.4632336219E+01  0.1687874791E+01  0.1643663403E+01
H   0.4758181996E+01  0.2550853558E+01  0.3014686148E+01
O   0.1314125770E+01 -0.3126081589E+00 -0.4071769897E+01
H   0.2981053133E+00 -0.1825121513E+00 -0.3957227307E+01
H   0.1636442759E+01  0.6284932765E+00 -0.4194459867E+01
O   0.4805372241E+01  0.1299204484E+01 -0.2883296736E+01
H   0.4613697458E+01  0.1074655758E+01 -0.3851898472E+01
H   0.5129929919E+01  0.4859091168E+00 -0.2396417297E+01
O   0.4583959038E+01 -0.2848394298E+01  0.2970378566E+01
H   0.4362243052E+01 -0.1936527544E+01  0.3339340084E+01
H   0.3907282370E+01 -0.3559789381E+01  0.3335310700E+01
O  -0.2690250342E+01 -0.3556339143E+00 -0.1607944280E+01
H  -0.3141334256E+01 -0.1071263520E+01 -0.2170443885E+01
H  -0.2570632496E+01 -0.8272588995E+00 -0.7100252837E+00
O  -0.2489004371E+01  0.3577690116E+01  0.6268512599E+00
H  -0.2916983058E+01  0.3085613183E+01 -0.1764691632E+00
H  -0.1480588161E+01  0.3596283804E+01  0.4418308887E+00
O  -0.4615756795E+01 -0.3050579427E+01  0.2128873066E+01
H  -0.4105796027E+01 -0.2816360831E+01  0.1305831169E+01
H  -0.4079520737E+01 -0.2585712547E+01  0.2857403321E+01
O  -0.4266159516E+01  0.1017076256E+00  0.5233470238E+01
H  -0.4107331943E+01  0.1114199313E+01  0.5145450081E+01
H  -0.5127628958E+01 -0.7103369341E-01  0.5709286559E+01
O   0.1222325151E+01  0.5003716988E+01 -0.2660953421E+01
H   0.1744082891E+01  0.5872473848E+01 -0.2901943138E+01
H   0.1551800040E+01  0.4622385841E+01 -0.1792032627E+01
O   0.1780019398E+00 -0.4884411496E+01  0.4435562315E+01
H  -0.3176842343E+00 -0.4892336164E+01  0.5331203779E+01
H  -0.3425292344E+00 -0.5440327144E+01  0.3784066252E+01
O  -0.1024700034E+01 -0.6614816610E+01  0.1681354434E+01
H  -0.1161192050E+01 -0.5771355281E+01  0.1149560310E+01
H  -0.1620699369E+01 -0.7331703456E+01  0.1321940597E+01
O  -0.3959238213E+01 -0.2523208881E+01 -0.2702482477E+01
H  -0.4282731058E+01 -0.2882489649E+01 -0.1809763137E+01
H  -0.4742653973E+01 -0.2468674493E+01 -0.3365739973E+01
O   0.2609646700E+01 -0.2621366643E+01 -0.4616059551E+01
H   0.2103995810E+01 -0.1748973600E+01 -0.4499529489E+01
H   0.2978917974E+01 -0.2611377254E+01 -0.5536821690E+01
O   0.2055888476E+01 -0.3719130272E+01 -0.2261728532E+01
H   0.2273102311E+01 -0.3308090366E+01 -0.3189801498E+01
H   0.1956728907E+01 -0.4734341492E+01 -0.2452680381E+01
O   0.1218804226E+01 -0.1338891823E+01  0.1684760670E+01
H   0.7002139967E+00 -0.1592336898E+01  0.2538106552E+01
H   0.1377065682E+01 -0.2197146700E+01  0.1166668091E+01
O  -0.1205394863E+01 -0.4422544249E+01  0.4020521353E-01
H  -0.1142704765E+01 -0.4873270079E+01 -0.8616592487E+00
H  -0.2607570432E+00 -0.4091486155E+01  0.2137078140E+00
O  -0.1067491817E+01 -0.3941862938E+01 -0.6511543853E+01
H  -0.1290721475E+01 -0.3824431498E+01 -0.5538919148E+01
H  -0.1441431050E+01 -0.3132067408E+01 -0.6997280132E+01
O   0.3007364444E+01 -0.5627138204E+01  0.1281984338E+01
H   0.3064268313E+01 -0.5306200968E+01  0.2248724777E+01
H   0.2697006766E+01 -0.6582325359E+01  0.1281270298E+01
O  -0.2831341562E+01 -0.1596322469E+01  0.3578769521E+01
H  -0.3274401747E+01 -0.9316100161E+00  0.4250976112E+01
H  -0.1845229591E+01 -0.1668008230E+01  0.3821533737E+01
O  -0.4560107712E+01  0.2551256716E+01 -0.5190662231E+01
H  -0.5466786695E+01  0.2326847022E+01 -0.5603917428E+01
H  -0.3885833345E+01  0.1846391265E+01 -0.5518375046E+01
O   0.5651599381E+01  0.1329126752E+01  0.4118093185E+00
H   0.6423680202E+01  0.1767284265E+01 -0.2656706390E-01
H   0.5453916809E+01  0.5029684864E+00 -0.1352786694E+00
O   0.1660965759E+01  0.1291714497E+01  0.6579267850E+01
H   0.1404367985E+01  0.5460018267E+00  0.5975760441E+01
H   0.8033929221E+00  0.1663093069E+01  0.6966479750E+01
O  -0.3911215249E+01  0.2047549409E+01 -0.1125607649E+01
H  -0.3461675674E+01  0.1210869128E+01 -0.1410718594E+01
H  -0.4508098726E+01  0.1801530732E+01 -0.3493965050E+00
O   0.2961219774E+01  0.2746455073E+01 -0.1459074586E+01
H   0.3679070232E+01  0.2128520303E+01 -0.1887199010E+01
H   0.2259123144E+01  0.2165853099E+01 -0.1037932409E+01
O  -0.6336335822E+00  0.3254993542E+01 -0.3533016255E+01
H  -0.6168120871E-01  0.4009312683E+01 -0.3160685999E+01
H  -0.1637877987E+01  0.3585011828E+01 -0.3401048449E+01
O  -0.1213996794E+01  0.6234806922E+00 -0.3670717707E+01
H  -0.1008548095E+01  0.1624015199E+01 -0.3590776468E+01
H  -0.1741392680E+01  0.3445459704E+00 -0.2889566179E+01
O   0.6915435327E+00  0.5566740226E+01  0.3332536856E+01
H   0.1336088072E+01  0.6031178085E+01  0.3959875391E+01
H   0.1257237889E+01  0.4962323175E+01  0.2722402680E+01
O   0.2335611885E+01  0.3979000568E+01  0.1841952321E+01
H   0.2840447838E+01  0.3158502045E+01  0.2154006778E+01
H   0.2969428936E+01  0.4443983749E+01  0.1210308536E+01
O   0.2866491763E+01 -0.4861097268E+01  0.3874365598E+01
H   0.3316877594E+01 -0.5197187542E+01  0.4701888207E+01
H   0.1880814159E+01 -0.4792882540E+01  0.4097565246E+01
O  -0.1770031532E+01 -0.3678153963E+01 -0.3909672022E+01
H  -0.2527307602E+01 -0.3175604985E+01 -0.3455828174E+01
H  -0.1293656694E+01 -0.4246534132E+01 -0.3232592885E+01
O  -0.1433339485E+00 -0.2167616772E+01  0.3917551228E+01
H   0.4693267504E+00 -0.1736670319E+01  0.4607600948E+01
H  -0.4348290446E-01 -0.3159914042E+01  0.4021399749E+01
O   0.1865680949E+01 -0.6425639789E+01 -0.2680706909E+01
H   0.2127182066E+01 -0.6683744702E+01 -0.3611502398E+01
H   0.2540221056E+01 -0.6768496731E+01 -0.2018431785E+01
O   0.5235721941E+01 -0.8547993125E+00 -0.1164530440E+01
H   0.4231458050E+01 -0.9321310994E+00 -0.1383724840E+01
H   0.5461138816E+01 -0.1767718545E+01 -0.8060441284E+00
O  -0.9713340531E+00  0.1785019940E+01  0.7116687878E+01
H  -0.1776635821E+01  0.2257499625E+01  0.7439025933E+01
H  -0.1084709533E+01  0.1565059810E+01  0.6105511244E+01
O  -0.2754519444E+01  0.6753025002E+00 -0.5899289935E+01
H  -0.2180938660E+01  0.5942013802E+00 -0.5052332130E+01
H  -0.2134674796E+01  0.6087784111E+00 -0.6696682449E+01
O  -0.1063132036E+01  0.1367086710E+01  0.4470603894E+01
H  -0.2940781841E+00  0.1779971247E+01  0.4011214559E+01
H  -0.1858644964E+01  0.1434105380E+01  0.3828305513E+01
O   0.1743066370E+01 -0.1362826013E+01  0.5634453578E+01
H   0.2043981130E+01 -0.1256796401E+01  0.6581226872E+01
H   0.2502406860E+01 -0.1046574227E+01  0.5029950146E+01
O   0.3754871344E+01 -0.3696925387E+00  0.4121142066E+01
H   0.3569855195E+01  0.1707604772E+00  0.3292794642E+01
H   0.4148928168E+01  0.2777807313E+00  0.4781700089E+01
O  -0.3242759020E+01  0.3763781568E+01 -0.3156461320E+01
H  -0.3573849259E+01  0.3225355604E+01 -0.2359552672E+01
H  -0.3808267091E+01  0.3445876481E+01 -0.3979634308E+01
O  -0.1970945646E+01  0.5530682587E+01  0.3703620583E+01
H  -0.2350899401E+01  0.5845561483E+01  0.2844201345E+01
H  -0.9529819175E+00  0.5558105949E+01  0.3618527943E+01
O  -0.7761917927E+00 -0.5755563752E+01 -0.2305997853E+01
H  -0.1308378468E+01 -0.6334091959E+01 -0.2926822020E+01
H   0.1991612963E+00 -0.6034741752E+01 -0.2384704577E+01
         159
 Time step:           3
O   0.4680197358E+00  0.6502686860E+00  0.3727258881E-01
H   0.8870034859E+00 -0.1970257203E-01  0.6959077959E+00
H  -0.1387673121E+00  0.1086691801E+00 -0.5515178274E+00
O   0.2687664384E+01 -0.1072126094E+01 -0.1819248627E+01
H   0.2485479239E+01 -0.2068355094E+01 -0.1805707608E+01
H   0.2151600542E+01 -0.6624291607E+00 -0.2582621516E+01
O  -0.5054011322E+01  0.1064148310E+01  0.1112718142E+01
H  -0.5642406395E+01  0.3772506631E+00  0.1572706425E+01
H  -0.4292237674E+01  0.1277885053E+01  0.1774879312E+01
O   0.4038564609E+01  0.4793190086E+01 -0.8148498537E-01
H   0.3686526185E+01  0.4004254881E+01 -0.6330672043E+00
H   0.4924841259E+01  0.5082153830E+01 -0.4845916084E+00
O  -0.4497893124E+01  0.4962466985E+01  0.1784157502E+01
H  -0.3737010639E+01  0.4482285278E+01  0.1344890236E+01
H  -0.5078814910E+01  0.5375754749E+01  0.1104416602E+01
O   0.1684198092E+00  0.3277079258E+01  0.3071223834E+00
H   0.2421013740E+00  0.2281161350E+01  0.2094026483E+00
H   0.9078421248E+00  0.3552781182E+01  0.8981191639E+00
O   0.1362229175E+01 -0.3717071374E+01  0.3217565658E+00
H   0.2050452958E+01 -0.4444097486E+01  0.6952594792E+00
H   0.1627542541E+01 -0.3581930898E+01 -0.7078391392E+00
O  -0.2512032749E+01 -0.2033559483E+01  0.5279974189E+00
H  -0.2434773773E+01 -0.1745390826E+01  0.1473012365E+01
H  -0.2044196692E+01 -0.2947614934E+01  0.3548461043E+00
O   0.1890767224E+01  0.2287823771E+01 -0.4118735347E+01
H   0.9713956002E+00  0.2689396373E+01 -0.4088638967E+01
H   0.2407091321E+01  0.2718734214E+01 -0.3364183052E+01
O  -0.3080312625E+01  0.1996321902E+01  0.2752049449E+01
H  -0.3502352730E+01  0.2677670431E+01  0.3404683754E+01
H  -0.2767481745E+01  0.2540796057E+01  0.1939648118E+01
O   0.5064677849E+01 -0.3623625966E+01  0.3601843690E+00
H   0.4433911050E+01 -0.4451808848E+01  0.3754958618E+00
H   0.5036670201E+01 -0.3202510242E+01  0.1311290986E+01
O  -0.4061768136E+01  0.3926349092E+01  0.4301940562E+01
H  -0.3257090716E+01  0.4513073634E+01  0.4394497241E+01
H  -0.4559852611E+01  0.4326665577E+01  0.3508008993E+01
O   0.4118775650E+01  0.1988834933E+01  0.2509416950E+01
H   0.4641769929E+01  0.1688576870E+01  0.1641504464E+01
H   0.4755968691E+01  0.2561311506E+01  0.3006121831E+01
O   0.1311332120E+01 -0.3128155804E+00 -0.4069091297E+01
H   0.2928734439E+00 -0.1822513358E+00 -0.3945441665E+01
H   0.1627558801E+01  0.6165110450E+00 -0.4195605353E+01
O   0.4807476414E+01  0.1299050567E+01 -0.2885804209E+01
H   0.4622858957E+01  0.1079322677E+01 -0.3859177133E+01
H   0.5129907318E+01  0.4914915661E+00 -0.2397523182E+01
O   0.4583741021E+01 -0.2852107778E+01  0.2972227454E+01
H   0.4370116964E+01 -0.1936989384E+01  0.3330300348E+01
H   0.3902653513E+01 -0.3576272786E+01  0.3339953632E+01
O  -0.2687704424E+01 -0.3553238895E+00 -0.1607728516E+01
H  -0.3137615341E+01 -0.1075385016E+01 -0.2163184946E+01
H  -0.2559490675E+01 -0.8243248592E+00 -0.7108984391E+00
O  -0.2489881349E+01  0.3580280621E+01  0.6267134782E+00
H  -0.2916721558E+01  0.3085273435E+01 -0.1787111935E+00
H  -0.1483174738E+01  0.3602447218E+01  0.4385274920E+00
O  -0.4618046350E+01 -0.3052881671E+01  0.2133043287E+01
H  -0.4106691873E+01 -0.2825742880E+01  0.1312331404E+01
H  -0.4075375482E+01 -0.2578540175E+01  0.2850706806E+01
O  -0.4267947530E+01  0.1007828499E+00  0.5234396168E+01
H  -0.4099145140E+01  0.1122705662E+01  0.5154032512E+01
H  -0.5121379040E+01 -0.7096391747E-01  0.5721983001E+01
O   0.1221626751E+01  0.5002435953E+01 -0.2658997099E+01
H   0.1748299148E+01  0.5885540620E+01 -0.2906489888E+01
H   0.1548346402E+01  0.4621529485E+01 -0.1791147726E+01
O   0.1766954389E+00 -0.4888080817E+01  0.4436253897E+01
H  -0.3251725837E+00 -0.4890677225E+01  0.5331998531E+01
H  -0.3493141703E+00 -0.5435414967E+01  0.3784977456E+01
O  -0.1022532271E+01 -0.6614428409E+01  0.1676626686E+01
H  -0.1153462949E+01 -0.5770360690E+01  0.1152981814E+01
H  -0.1628391558E+01 -0.7327169637E+01  0.1328167813E+01
O  -0.3957100194E+01 -0.2522368111E+01 -0.2702038214E+01
H  -0.4282540230E+01 -0.2872219606E+01 -0.1803709959E+01
H  -0.4741979146E+01 -0.2472728596E+01 -0.3373433059E+01
O   0.2613731074E+01 -0.2622227674E+01 -0.4613797989E+01
H   0.2116549797E+01 -0.1750028871E+01 -0.4502822352E+01
H   0.2967502432E+01 -0.2612242009E+01 -0.5536780814E+01
O   0.2057796154E+01 -0.3719451174E+01 -0.2259654637E+01
H   0.2269590833E+01 -0.3301625940E+01 -0.3189403759E+01
H   0.1962136414E+01 -0.4742855810E+01 -0.2461836187E+01
O   0.1221263460E+01 -0.1339237453E+01  0.1682315225E+01
H   0.7077787918E+00 -0.1600696888E+01  0.2540654425E+01
H   0.1379260753E+01 -0.2192889167E+01  0.1159509584E+01
O  -0.1203975441E+01 -0.4423852020E+01  0.4155963690E-01
H  -0.1136566434E+01 -0.4854274921E+01 -0.8624737139E+00
H  -0.2642252242E+00 -0.4094499435E+01  0.2083113081E+00
O  -0.1068596496E+01 -0.3940063825E+01 -0.6515055756E+01
H  -0.1291692757E+01 -0.3804185281E+01 -0.5552070626E+01
H  -0.1446403327E+01 -0.3126985271E+01 -0.7007079188E+01
O   0.3006472149E+01 -0.5626982859E+01  0.1285281947E+01
H   0.3070635175E+01 -0.5303753330E+01  0.2247788966E+01
H   0.2708180959E+01 -0.6586518737E+01  0.1269981744E+01
O  -0.2833993283E+01 -0.1597254881E+01  0.3578443356E+01
H  -0.3272148876E+01 -0.9275322434E+00  0.4261202411E+01
H  -0.1848833743E+01 -0.1677101158E+01  0.3819259142E+01
O  -0.4561079310E+01  0.2550377352E+01 -0.5191030826E+01
H  -0.5471333043E+01  0.2324031477E+01 -0.5609224561E+01
H  -0.3887753487E+01  0.1846816897E+01 -0.5526767694E+01
O   0.5652322951E+01  0.1328522472E+01  0.4124868661E+00
H   0.6415883376E+01  0.1772442757E+01 -0.3032028154E-01
H   0.5455392192E+01  0.5081022108E+00 -0.1387750495E+00
O   0.1661383549E+01  0.1292825366E+01  0.6580034211E+01
H   0.1406938534E+01  0.5569781695E+00  0.5970293673E+01
H   0.8099517227E+00  0.1670865293E+01  0.6966934747E+01
O  -0.3911805665E+01  0.2046850566E+01 -0.1125432255E+01
H  -0.3462217069E+01  0.1218289843E+01 -0.1413105907E+01
H  -0.4506310931E+01  0.1810341863E+01 -0.3487808432E+00
O   0.2959322516E+01  0.2743411250E+01 -0.1462498115E+01
H   0.3680628160E+01  0.2122111460E+01 -0.1894604562E+01
H   0.2261914434E+01  0.2167966435E+01 -0.1034904515E+01
O  -0.6320310477E+00  0.3251620848E+01 -0.3532356308E+01
H  -0.6432618827E-01  0.4000921263E+01 -0.3152445600E+01
H  -0.1647793166E+01  0.3587749267E+01 -0.3392126857E+01
O  -0.1214852673E+01  0.6224596212E+00 -0.3668344536E+01
H  -0.1012162711E+01  0.1622742377E+01 -0.3601634767E+01
H  -0.1744152609E+01  0.3484888406E+00 -0.2909366018E+01
O   0.6892620888E+00  0.5567524764E+01  0.3330031822E+01
H   0.1346264208E+01  0.6019912617E+01  0.3959607007E+01
H   0.1253026428E+01  0.4965002675E+01  0.2713546611E+01
O   0.2338186681E+01  0.3977121736E+01  0.1840669323E+01
H   0.2840187825E+01  0.3159923699E+01  0.2154802274E+01
H   0.2976747506E+01  0.4446788611E+01  0.1227523910E+01
O   0.2863389623E+01 -0.4860676290E+01  0.3873169263E+01
H   0.3306917680E+01 -0.5189001091E+01  0.4704032111E+01
H   0.1886728566E+01 -0.4796104583E+01  0.4105152334E+01
O  -0.1773857948E+01 -0.3679458397E+01 -0.3908720593E+01
H  -0.2527069736E+01 -0.3175233922E+01 -0.3451610875E+01
H  -0.1292007023E+01 -0.4247962310E+01 -0.3240191968E+01
O  -0.1446545367E+00 -0.2167631204E+01  0.3916334426E+01
H   0.4628489377E+00 -0.1729244312E+01  0.4601189225E+01
H  -0.4815357408E-01 -0.3154622740E+01  0.4019766588E+01
O   0.1866594308E+01 -0.6427169126E+01 -0.2678982606E+01
H   0.2125703417E+01 -0.6680986247E+01 -0.3608684731E+01
H   0.2536305236E+01 -0.6763422101E+01 -0.2009576379E+01
O   0.5234205723E+01 -0.8534948923E+00 -0.1162552636E+01
H   0.4234489743E+01 -0.9393056892E+00 -0.1396559803E+01
H   0.5444897956E+01 -0.1764354231E+01 -0.7991812155E+00
O  -0.9704184116E+00  0.1784605784E+01  0.7115320370E+01
H  -0.1759484172E+01  0.2267081984E+01  0.7444262442E+01
H  -0.1087704823E+01  0.1561228603E+01  0.6098093374E+01
O  -0.2757167583E+01  0.6729028105E+00 -0.5896542007E+01
H  -0.2184095412E+01  0.5899610192E+00 -0.5048640183E+01
H  -0.2130769093E+01  0.6206653118E+00 -0.6698154324E+01
O  -0.1062120818E+01  0.1365505158E+01  0.4472988206E+01
H  -0.3046428073E+00  0.1779102246E+01  0.4013607626E+01
H  -0.1863881942E+01  0.1440706206E+01  0.3837296718E+01
O   0.1740114412E+01 -0.1364202511E+01  0.5636596082E+01
H   0.2043919028E+01 -0.1267305833E+01  0.6579985630E+01
H   0.2496683780E+01 -0.1034984441E+01  0.5039191811E+01
O   0.3753240298E+01 -0.3679793179E+00  0.4122153955E+01
H   0.3567091005E+01  0.1632528346E+00  0.3292757461E+01
H   0.4135927284E+01  0.2855842397E+00  0.4783285707E+01
O  -0.3242300982E+01  0.3765175745E+01 -0.3154647008E+01
H  -0.3563768913E+01  0.3224013837E+01 -0.2356062159E+01
H  -0.3814469505E+01  0.3444601535E+01 -0.3979263209E+01
O  -0.1970412515E+01  0.5531431268E+01  0.3705142615E+01
H  -0.2344872437E+01  0.5856667252E+01  0.2851324800E+01
H  -0.9530961396E+00  0.5566755294E+01  0.3626875663E+01
O  -0.7722949671E+00 -0.5755378278E+01 -0.2307756565E+01
H  -0.1306749753E+01 -0.6329515293E+01 -0.2927325461E+01
H   0.1979070701E+00 -0.6047828390E+01 -0.2375132102E+01
         159
 Time step:           4
O   0.4665960217E+00  0.6513560300E+00  0.3522347868E-01
H   0.8906450241E+00 -0.1618279144E-01  0.6930864013E+00
H  -0.1299782280E+00  0.1050830996E+00 -0.5596544808E+00
O   0.2688427908E+01 -0.1071019707E+01 -0.1818452154E+01
H   0.2495132078E+01 -0.2069039856E+01 -0.1807183979E+01
H   0.2153012312E+01 -0.6539857864E+00 -0.2578298818E+01
O  -0.5054672859E+01  0.1067655804E+01  0.1112681144E+01
H  -0.5640312876E+01  0.3779255317E+00  0.1584008031E+01
H  -0.4275735468E+01  0.1260637316E+01  0.1767638098E+01
O   0.4038587665E+01  0.4793617233E+01 -0.8291183066E-01
H   0.3685345446E+01  0.4003058680E+01 -0.6324908148E+00
H   0.4926092746E+01  0.5078809726E+01 -0.4888211774E+00
O  -0.4498866105E+01  0.4962520006E+01  0.1784941804E+01
H  -0.3735280405E+01  0.4488189188E+01  0.1352363671E+01
H  -0.5081715351E+01  0.5378080405E+01  0.1112097173E+01
O   0.1682850229E+00  0.3278825278E+01  0.3063291287E+00
H   0.2329431621E+00  0.2287980674E+01  0.2072300298E+00
H   0.9041277854E+00  0.3540205255E+01  0.8966256233E+00
O   0.1364531528E+01 -0.3717119810E+01  0.3209143029E+00
H   0.2059512027E+01 -0.4451816180E+01  0.6877645832E+00
H   0.1623766472E+01 -0.3574677317E+01 -0.7169529611E+00
O  -0.2514002280E+01 -0.2032651824E+01  0.5264135837E+00
H  -0.2449711242E+01 -0.1741978349E+01  0.1469668199E+01
H  -0.2049422702E+01 -0.2949302124E+01  0.3470720337E+00
O   0.1891847652E+01  0.2289734893E+01 -0.4121210465E+01
H   0.9760801334E+00  0.2691504825E+01 -0.4089677531E+01
H   0.2408452856E+01  0.2707241863E+01 -0.3358948365E+01
O  -0.3079157767E+01  0.1996238413E+01  0.2751444185E+01
H  -0.3508685500E+01  0.2675999666E+01  0.3402016511E+01
H  -0.2775198180E+01  0.2536531557E+01  0.1931992345E+01
O   0.5066336445E+01 -0.3624038815E+01  0.3593044349E+00
H   0.4429244294E+01 -0.4453004932E+01  0.3618524234E+00
H   0.5025400418E+01 -0.3195947057E+01  0.1310445675E+01
O  -0.4060706662E+01  0.3928119226E+01  0.4301996538E+01
H  -0.3264053051E+01  0.4513535777E+01  0.4397051761E+01
H  -0.4566009741E+01  0.4319609706E+01  0.3508227885E+01
O   0.4121351865E+01  0.1989567403E+01  0.2510536162E+01
H   0.4648993445E+01  0.1689752083E+01  0.1641582705E+01
H   0.4754689729E+01  0.2571543556E+01  0.2999083627E+01
O   0.1308385422E+01 -0.3132431085E+00 -0.4066370689E+01
H   0.2887408469E+00 -0.1821268627E+00 -0.3933827892E+01
H   0.1619995747E+01  0.6081584927E+00 -0.4197290047E+01
O   0.4809445795E+01  0.1299017384E+01 -0.2888334682E+01
H   0.4631936203E+01  0.1083913648E+01 -0.3865117819E+01
H   0.5130504985E+01  0.4950100282E+00 -0.2397638097E+01
O   0.4583424978E+01 -0.2855476368E+01  0.2973820008E+01