         159
Time step:                   1 Sim. Time [au]          20.00
O     0.47469499E+00    0.64482506E+00    0.45490535E-01
H     0.87566325E+00   -0.33235981E-01    0.70705454E+00
H    -0.16232671E+00    0.11861470E+00   -0.52503616E+00
O     0.26859374E+01   -0.10746140E+01   -0.18208590E+01
H     0.24682848E+01   -0.20675024E+01   -0.18025762E+01
H     0.21536879E+01   -0.68385563E+00   -0.25967278E+01
O    -0.50538267E+01    0.10589329E+01    0.11150718E+01
H    -0.56488148E+01    0.37815767E+00    0.15473181E+01
H    -0.43217419E+01    0.13010455E+01    0.17965711E+01
O     0.40388266E+01    0.47915593E+01   -0.74274307E-01
H     0.36879333E+01    0.39987885E+01   -0.63980620E+00
H     0.49062927E+01    0.50949705E+01   -0.46282414E+00
O    -0.44939222E+01    0.49654040E+01    0.17827466E+01
H    -0.37341668E+01    0.44727746E+01    0.13197786E+01
H    -0.50690354E+01    0.53698281E+01    0.10703223E+01
O     0.17018002E+00    0.32730094E+01    0.30698795E+00
H     0.25264294E+00    0.22514871E+01    0.22090343E+00
H     0.92653780E+00    0.35862934E+01    0.92086539E+00
O     0.13523871E+01   -0.37187013E+01    0.32345467E+00
H     0.20132299E+01   -0.44188319E+01    0.70402968E+00
H     0.16397718E+01   -0.36148776E+01   -0.67542172E+00
O    -0.25035649E+01   -0.20402648E+01    0.53241057E+00
H    -0.23775102E+01   -0.17693572E+01    0.15036358E+01
H    -0.20183692E+01   -0.29405942E+01    0.40159913E+00
O     0.18881118E+01    0.22826376E+01   -0.41116890E+01
H     0.94402816E+00    0.26908244E+01   -0.40782605E+01
H     0.24007415E+01    0.27451198E+01   -0.33873748E+01
O    -0.30849355E+01    0.19963878E+01    0.27517515E+01
H    -0.34849716E+01    0.26698427E+01    0.34177301E+01
H    -0.27439772E+01    0.25506064E+01    0.19604201E+01
O     0.50555505E+01   -0.36268235E+01    0.36095172E+00
H     0.44723850E+01   -0.44276143E+01    0.43090349E+00
H     0.50815729E+01   -0.32306088E+01    0.12944909E+01
O    -0.40652844E+01    0.39231207E+01    0.43009570E+01
H    -0.32429431E+01    0.45169987E+01    0.44028143E+01
H    -0.45422266E+01    0.43472364E+01    0.35215878E+01
O     0.41095498E+01    0.19845383E+01    0.25037086E+01
H     0.46181756E+01    0.16772043E+01    0.16500924E+01
H     0.47629168E+01    0.25340865E+01    0.30309097E+01
O     0.13180311E+01   -0.31022428E+00   -0.40776517E+01
H     0.29916572E+00   -0.18345535E+00   -0.39612587E+01
H     0.16501516E+01    0.63697422E+00   -0.41778735E+01
O     0.48012220E+01    0.12969895E+01   -0.28774792E+01
H     0.46022841E+01    0.10612107E+01   -0.38275723E+01
H     0.51192115E+01    0.47596715E+00   -0.23852756E+01
O     0.45832299E+01   -0.28436715E+01    0.29655348E+01
H     0.43273697E+01   -0.19305648E+01    0.33737745E+01
H     0.39237673E+01   -0.35180769E+01    0.33295838E+01
O    -0.26979944E+01   -0.35393101E+00   -0.16046192E+01
H    -0.31463634E+01   -0.10621720E+01   -0.21909923E+01
H    -0.25816566E+01   -0.83359910E+00   -0.70878323E+00
O    -0.24874338E+01    0.35687944E+01    0.62595176E+00
H    -0.29063019E+01    0.30842472E+01   -0.17280077E+00
H    -0.14837538E+01    0.35959918E+01    0.45119252E+00
O    -0.46134060E+01   -0.30420623E+01    0.21201147E+01
H    -0.40952256E+01   -0.28017712E+01    0.12842528E+01
H    -0.40956755E+01   -0.26007846E+01    0.28815097E+01
O    -0.42613213E+01    0.10539343E+00    0.52335188E+01
H    -0.41223195E+01    0.11025241E+01    0.51304984E+01
H    -0.51422044E+01   -0.62382380E-01    0.56951222E+01
O     0.12274685E+01    0.50053943E+01   -0.26651102E+01
H     0.17295217E+01    0.58386580E+01   -0.28980224E+01
H     0.15302600E+01    0.46287144E+01   -0.18097398E+01
O     0.18228867E+00   -0.48713995E+01    0.44312476E+01
H    -0.27948867E+00   -0.48932088E+01    0.53304964E+01
H    -0.32048505E+00   -0.54751557E+01    0.37876900E+01
O    -0.10299369E+01   -0.66144774E+01    0.16897285E+01
H    -0.11735969E+01   -0.57658155E+01    0.11558627E+01
H    -0.15989321E+01   -0.73356087E+01    0.13104254E+01
O    -0.39621134E+01   -0.25229986E+01   -0.27038871E+01
H    -0.42874071E+01   -0.29172573E+01   -0.18139790E+01
H    -0.47404765E+01   -0.24520606E+01   -0.33299686E+01
O     0.26011804E+01   -0.26205319E+01   -0.46226165E+01
H     0.20795709E+01   -0.17449338E+01   -0.44851984E+01
H     0.29986307E+01   -0.26023795E+01   -0.55387969E+01
O     0.20536995E+01   -0.37189451E+01   -0.22641076E+01
H     0.22685028E+01   -0.33274861E+01   -0.31747564E+01
H     0.19467492E+01   -0.47243079E+01   -0.24282097E+01
O     0.12104586E+01   -0.13370310E+01    0.16911708E+01
H     0.69133114E+00   -0.15805843E+01    0.25335806E+01
H     0.13682408E+01   -0.22019093E+01    0.11871543E+01
O    -0.12045337E+01   -0.44202633E+01    0.37569419E-01
H    -0.11549590E+01   -0.49056935E+01   -0.86221873E+00
H    -0.25036838E+00   -0.40960967E+01    0.22221027E+00
O    -0.10618555E+01   -0.39479947E+01   -0.65062380E+01
H    -0.12836275E+01   -0.38710538E+01   -0.55131126E+01
H    -0.14294907E+01   -0.31375240E+01   -0.69709234E+01
O     0.30085680E+01   -0.56276632E+01    0.12792141E+01
H     0.30515003E+01   -0.53178351E+01    0.22408586E+01
H     0.26770070E+01   -0.65746724E+01    0.12999423E+01
O    -0.28255335E+01   -0.15913451E+01    0.35790237E+01
H    -0.32841277E+01   -0.94542938E+00    0.42237321E+01
H    -0.18452763E+01   -0.16522039E+01    0.38150360E+01
O    -0.45596509E+01    0.25510906E+01   -0.51903811E+01
H    -0.54470990E+01    0.23244308E+01   -0.55793776E+01
H    -0.38880988E+01    0.18521472E+01   -0.55121644E+01
O     0.56510354E+01    0.13297922E+01    0.41099855E+00
H     0.64628552E+01    0.17463973E+01   -0.12737365E-01
H     0.54528352E+01    0.48723482E+00   -0.12088268E+00
O     0.16632579E+01    0.12882675E+01    0.65800831E+01
H     0.14060942E+01    0.52147960E+00    0.59848054E+01
H     0.78214291E+00    0.16473625E+01    0.69622419E+01
O    -0.39051572E+01    0.20497138E+01   -0.11246861E+01
H    -0.34405311E+01    0.11791279E+01   -0.14094978E+01
H    -0.45250638E+01    0.17618967E+01   -0.34591924E+00
O     0.29625385E+01    0.27497320E+01   -0.14525562E+01
H     0.36752403E+01    0.21444526E+01   -0.18648079E+01
H     0.22437985E+01    0.21647189E+01   -0.10456923E+01
O    -0.64007561E+00    0.32636791E+01   -0.35374091E+01
H    -0.52519488E-01    0.40346706E+01   -0.31784153E+01
H    -0.16129206E+01    0.35859650E+01   -0.34221491E+01
O    -0.12131443E+01    0.62327001E+00   -0.36746574E+01
H    -0.99892833E+00    0.16056972E+01   -0.35814227E+01
H    -0.17370744E+01    0.32526883E+00   -0.28371275E+01
O     0.69361345E+00    0.55653156E+01    0.33374795E+01
H     0.13119735E+01    0.60434207E+01    0.39691587E+01
H     0.12567924E+01    0.49535403E+01    0.27440461E+01
O     0.23306106E+01    0.39829024E+01    0.18463738E+01
H     0.28422815E+01    0.31746611E+01    0.21467101E+01
H     0.29566678E+01    0.44371114E+01    0.11689769E+01
O     0.28715631E+01   -0.48613722E+01    0.38775935E+01
H     0.33274092E+01   -0.52032319E+01    0.46797623E+01
H     0.18650977E+01   -0.47826634E+01    0.40882057E+01
O    -0.17625158E+01   -0.36742544E+01   -0.39110686E+01
H    -0.25276082E+01   -0.31865606E+01   -0.34678255E+01
H    -0.12980282E+01   -0.42469863E+01   -0.32227665E+01
O    -0.13962897E+00   -0.21691499E+01    0.39188323E+01
H     0.48812684E+00   -0.17528167E+01    0.46251509E+01
H    -0.41307086E-01   -0.31634517E+01    0.40231802E+01
O     0.18643760E+01   -0.64215673E+01   -0.26848322E+01
H     0.21355011E+01   -0.66801439E+01   -0.36184782E+01
H     0.25495876E+01   -0.67727599E+01   -0.20350466E+01
O     0.52361919E+01   -0.85904160E+00   -0.11701634E+01
H     0.42312139E+01   -0.91668219E+00   -0.13599726E+01
H     0.54843776E+01   -0.17747531E+01   -0.80266768E+00
O    -0.97169334E+00    0.17865296E+01    0.71182141E+01
H    -0.18063388E+01    0.22363530E+01    0.74265115E+01
H    -0.10852700E+01    0.15788367E+01    0.61206767E+01
O    -0.27518163E+01    0.67912165E+00   -0.59020259E+01
H    -0.21719415E+01    0.59860295E+00   -0.50535622E+01
H    -0.21479942E+01    0.60170188E+00   -0.67012050E+01
O    -0.10656816E+01    0.13702970E+01    0.44661938E+01
H    -0.27268887E+00    0.17886400E+01    0.39992099E+01
H    -0.18529371E+01    0.14315791E+01    0.38164441E+01
O     0.17454915E+01   -0.13608642E+01    0.56299029E+01
H     0.20526375E+01   -0.12309726E+01    0.65762743E+01
H     0.25192758E+01   -0.10616400E+01    0.50124480E+01
O     0.37557693E+01   -0.37277971E+00    0.41160148E+01
H     0.35834152E+01    0.18909987E+00    0.32974902E+01
H     0.41848345E+01    0.27375657E+00    0.47944838E+01
O    -0.32451963E+01    0.37611122E+01   -0.31650951E+01
H    -0.36059656E+01    0.32259773E+01   -0.23670262E+01
H    -0.37821424E+01    0.34589353E+01   -0.39641627E+01
O    -0.19691337E+01    0.55317592E+01    0.36999554E+01
H    -0.23553206E+01    0.58291522E+01    0.28373643E+01
H    -0.95374437E+00    0.55316730E+01    0.35992103E+01
O    -0.78220281E+00   -0.57558248E+01   -0.23031955E+01
H    -0.13205092E+01   -0.63331357E+01   -0.29381345E+01
H     0.18426718E+00   -0.60025537E+01   -0.24026171E+01
         159
Time step:                   2 Sim. Time [au]          40.00
O     0.47746687E+00    0.64244225E+00    0.48243328E-01
H     0.87374872E+00   -0.37757745E-01    0.71043508E+00
H    -0.16354309E+00    0.11854355E+00   -0.51993900E+00
O     0.26859597E+01   -0.10744865E+01   -0.18206252E+01
H     0.24734041E+01   -0.20684850E+01   -0.18026924E+01
H     0.21581097E+01   -0.68428032E+00   -0.25997707E+01
O    -0.50551508E+01    0.10609439E+01    0.11177030E+01
H    -0.56512708E+01    0.38076625E+00    0.15432868E+01
H    -0.43166323E+01    0.12892723E+01    0.18046841E+01
O     0.40384649E+01    0.47913881E+01   -0.73347073E-01
H     0.36876785E+01    0.39921140E+01   -0.64127363E+00
H     0.48997373E+01    0.50948474E+01   -0.46174712E+00
O    -0.44927465E+01    0.49679570E+01    0.17824145E+01
H    -0.37379614E+01    0.44855912E+01    0.13238665E+01
H    -0.50608074E+01    0.53655825E+01    0.10696495E+01
O     0.17248674E+00    0.32726535E+01    0.30563634E+00
H     0.24053512E+00    0.22531472E+01    0.22867515E+00
H     0.92207601E+00    0.35824888E+01    0.92784024E+00
O     0.13485470E+01   -0.37201518E+01    0.32302734E+00
H     0.20166421E+01   -0.44321101E+01    0.69137158E+00
H     0.16435166E+01   -0.36227240E+01   -0.69030014E+00
O    -0.25028779E+01   -0.20430632E+01    0.53169768E+00
H    -0.23851760E+01   -0.17842034E+01    0.15024035E+01
H    -0.20120544E+01   -0.29453151E+01    0.41369878E+00
O     0.18877169E+01    0.22828680E+01   -0.41109939E+01
H     0.94196535E+00    0.26917254E+01   -0.40721437E+01
H     0.23964284E+01    0.27399965E+01   -0.33980115E+01
O    -0.30856451E+01    0.19963478E+01    0.27495788E+01
H    -0.34883083E+01    0.26573590E+01    0.34212360E+01
H    -0.27469352E+01    0.25444178E+01    0.19582265E+01
O     0.50524050E+01   -0.36317762E+01    0.35786686E+00
H     0.44879343E+01   -0.44176557E+01    0.43847147E+00
H     0.50875082E+01   -0.32328896E+01    0.12771707E+01
O    -0.40660561E+01    0.39238446E+01    0.43001057E+01
H    -0.32521702E+01    0.45136369E+01    0.44130068E+01
H    -0.45354424E+01    0.43513666E+01    0.35365514E+01
O     0.41096183E+01    0.19832938E+01    0.25029325E+01
H     0.46273903E+01    0.16676145E+01    0.16510431E+01
H     0.47570268E+01    0.25369590E+01    0.30221034E+01
O     0.13172177E+01   -0.30753246E+00   -0.40792114E+01
H     0.29478805E+00   -0.18411821E+00   -0.39448499E+01
H     0.16456885E+01    0.61659348E+00   -0.41609585E+01
O     0.48021816E+01    0.12943591E+01   -0.28776423E+01
H     0.46119650E+01    0.10598791E+01   -0.38194794E+01
H     0.51075640E+01    0.48541968E+00   -0.23822529E+01
O     0.45819915E+01   -0.28457570E+01    0.29644043E+01
H     0.43089317E+01   -0.19321731E+01    0.33881324E+01
H     0.39297458E+01   -0.35106316E+01    0.33341594E+01
O    -0.26993360E+01   -0.35230491E+00   -0.16015475E+01
H    -0.31411547E+01   -0.10594794E+01   -0.21898826E+01
H    -0.25696946E+01   -0.83105662E+00   -0.71381328E+00
O    -0.24879680E+01    0.35675827E+01    0.62482741E+00
H    -0.28963709E+01    0.30822032E+01   -0.17440216E+00
H    -0.14968636E+01    0.36098309E+01    0.45155039E+00
O    -0.46171388E+01   -0.30385928E+01    0.21220530E+01
H    -0.40886384E+01   -0.28140735E+01    0.12868947E+01
H    -0.41045486E+01   -0.25993745E+01    0.28841582E+01
O    -0.42595984E+01    0.10772848E+00    0.52354256E+01
H    -0.41245276E+01    0.11043252E+01    0.51298855E+01
H    -0.51409013E+01   -0.51312472E-01    0.56989111E+01
O     0.12301020E+01    0.50047584E+01   -0.26653589E+01
H     0.17260407E+01    0.58332615E+01   -0.29011798E+01
H     0.15104501E+01    0.46336756E+01   -0.18237700E+01
O     0.18227288E+00   -0.48703210E+01    0.44289879E+01
H    -0.26677361E+00   -0.48893194E+01    0.53320585E+01
H    -0.31604243E+00   -0.54873269E+01    0.37997096E+01
O    -0.10310017E+01   -0.66129698E+01    0.16874340E+01
H    -0.11679721E+01   -0.57642928E+01    0.11755195E+01
H    -0.15890768E+01   -0.73246068E+01    0.13141487E+01
O    -0.39602782E+01   -0.25212270E+01   -0.27039357E+01
H    -0.42895328E+01   -0.29240875E+01   -0.18090933E+01
H    -0.47377933E+01   -0.24463213E+01   -0.33157089E+01
O     0.25999706E+01   -0.26210300E+01   -0.46259066E+01
H     0.20823805E+01   -0.17492037E+01   -0.44773978E+01
H     0.29935371E+01   -0.25928383E+01   -0.55328385E+01
O     0.20545608E+01   -0.37192609E+01   -0.22632453E+01
H     0.22584701E+01   -0.33365910E+01   -0.31587508E+01
H     0.19461511E+01   -0.47271376E+01   -0.24197296E+01
O     0.12073803E+01   -0.13362079E+01    0.16922573E+01
H     0.69997236E+00   -0.15870867E+01    0.25332943E+01
H     0.13632325E+01   -0.21925116E+01    0.11951393E+01
O    -0.12002913E+01   -0.44199433E+01    0.36421400E-01
H    -0.11587276E+01   -0.49069606E+01   -0.85668024E+00
H    -0.25044931E+00   -0.41107672E+01    0.22056754E+00
O    -0.10576924E+01   -0.39512770E+01   -0.65072233E+01
H    -0.12757149E+01   -0.38810614E+01   -0.55214412E+01
H    -0.14259605E+01   -0.31338313E+01   -0.69595062E+01
O     0.30083571E+01   -0.56282715E+01    0.12818407E+01
H     0.30473212E+01   -0.53284480E+01    0.22256673E+01
H     0.26745187E+01   -0.65674086E+01    0.13020766E+01
O    -0.28244825E+01   -0.15884699E+01    0.35787363E+01
H    -0.32885240E+01   -0.95082279E+00    0.42168710E+01
H    -0.18556321E+01   -0.16527287E+01    0.38050912E+01
O    -0.45610067E+01    0.25492353E+01   -0.51909051E+01
H    -0.54411340E+01    0.23169929E+01   -0.55715490E+01
H    -0.38955030E+01    0.18589421E+01   -0.55227710E+01
O     0.56529363E+01    0.13284906E+01    0.41166750E+00
H     0.64677808E+01    0.17382965E+01   -0.71484435E-02
H     0.54579911E+01    0.49499978E+00   -0.11419653E+00
O     0.16652556E+01    0.12872788E+01    0.65818737E+01
H     0.14137856E+01    0.52626763E+00    0.59868725E+01
H     0.78205117E+00    0.16460817E+01    0.69572643E+01
O    -0.39017873E+01    0.20488341E+01   -0.11232907E+01
H    -0.34302857E+01    0.11830822E+01   -0.14112334E+01
H    -0.45287597E+01    0.17551904E+01   -0.34813750E+00
O     0.29603535E+01    0.27476582E+01   -0.14515144E+01
H     0.36730748E+01    0.21500404E+01   -0.18537028E+01
H     0.22377689E+01    0.21714513E+01   -0.10515252E+01
O    -0.64364359E+00    0.32667579E+01   -0.35413150E+01
H    -0.52444429E-01    0.40403495E+01   -0.31833921E+01
H    -0.16109634E+01    0.35958442E+01   -0.34259856E+01
O    -0.12141418E+01    0.62135047E+00   -0.36738729E+01
H    -0.99641024E+00    0.15816534E+01   -0.35905331E+01
H    -0.17300921E+01    0.31658893E+00   -0.28295941E+01
O     0.69063432E+00    0.55656214E+01    0.33368259E+01
H     0.13092598E+01    0.60283804E+01    0.39759797E+01
H     0.12457859E+01    0.49530609E+01    0.27484316E+01
O     0.23312483E+01    0.39830454E+01    0.18480749E+01
H     0.28411323E+01    0.31999395E+01    0.21386053E+01
H     0.29533115E+01    0.44314255E+01    0.11678392E+01
O     0.28721271E+01   -0.48611215E+01    0.38795223E+01
H     0.33214413E+01   -0.51962753E+01    0.46561114E+01
H     0.18647951E+01   -0.47775175E+01    0.40886032E+01
O    -0.17628800E+01   -0.36732590E+01   -0.39101444E+01
H    -0.25238575E+01   -0.31983074E+01   -0.34727675E+01
H    -0.13019006E+01   -0.42463907E+01   -0.32325489E+01
O    -0.13813022E+00   -0.21709003E+01    0.39182364E+01
H     0.49063589E+00   -0.17576165E+01    0.46259387E+01
H    -0.48423587E-01   -0.31505879E+01    0.40212163E+01
O     0.18651571E+01   -0.64208426E+01   -0.26856681E+01
H     0.21385160E+01   -0.66701634E+01   -0.36135720E+01
H     0.25473129E+01   -0.67655550E+01   -0.20379745E+01
O     0.52342063E+01   -0.86177871E+00   -0.11728108E+01
H     0.42395704E+01   -0.91245869E+00   -0.13549560E+01
H     0.54804369E+01   -0.17701834E+01   -0.79121305E+00
O    -0.97086501E+00    0.17879548E+01    0.71176479E+01
H    -0.18027518E+01    0.22231098E+01    0.74173809E+01
H    -0.10920099E+01    0.15895439E+01    0.61266039E+01
O    -0.27527217E+01    0.68000733E+00   -0.59006017E+01
H    -0.21673204E+01    0.59745636E+00   -0.50526069E+01
H    -0.21623298E+01    0.61507131E+00   -0.67071595E+01
O    -0.10664790E+01    0.13714632E+01    0.44648212E+01
H    -0.27540079E+00    0.17925183E+01    0.39949011E+01
H    -0.18518346E+01    0.14401018E+01    0.38207972E+01
O     0.17432418E+01   -0.13610533E+01    0.56290714E+01
H     0.20597243E+01   -0.12230416E+01    0.65622161E+01
H     0.25225377E+01   -0.10582788E+01    0.50142645E+01
O     0.37540578E+01   -0.37199961E+00    0.41138254E+01
H     0.35900191E+01    0.18790256E+00    0.33056614E+01
H     0.41882043E+01    0.27877311E+00    0.48019356E+01
O    -0.32460663E+01    0.37619355E+01   -0.31672406E+01
H    -0.36066862E+01    0.32261785E+01   -0.23695007E+01
H    -0.37773839E+01    0.34647189E+01   -0.39543228E+01
O    -0.19661321E+01    0.55346093E+01    0.36996716E+01
H    -0.23423656E+01    0.58373317E+01    0.28540808E+01
H    -0.95987865E+00    0.55277064E+01    0.36009735E+01
O    -0.78162484E+00   -0.57560788E+01   -0.23036531E+01
H    -0.13271422E+01   -0.63190476E+01   -0.29476805E+01
H     0.15975174E+00   -0.59899017E+01   -0.24046310E+01
         159
Time step:                   3 Sim. Time [au]          60.00
O     0.48018008E+00    0.64014882E+00    0.50915290E-01
H     0.87150728E+00   -0.42471720E-01    0.71356264E+00
H    -0.16462399E+00    0.11835790E+00   -0.51490862E+00
O     0.26859646E+01   -0.10743670E+01   -0.18204322E+01
H     0.24772409E+01   -0.20691878E+01   -0.18030976E+01
H     0.21612784E+01   -0.68473375E+00   -0.26019976E+01
O    -0.50568618E+01    0.10633763E+01    0.11215137E+01
H    -0.56551150E+01    0.38542904E+00    0.15351995E+01
H    -0.43109689E+01    0.12751098E+01    0.18121671E+01
O     0.40383211E+01    0.47911224E+01   -0.72666163E-01
H     0.36876476E+01    0.39853122E+01   -0.64117321E+00
H     0.48918002E+01    0.50961233E+01   -0.45827382E+00
O    -0.44918774E+01    0.49702412E+01    0.17818775E+01
H    -0.37436417E+01    0.44981919E+01    0.13285864E+01
H    -0.50508296E+01    0.53598746E+01    0.10722866E+01
O     0.17495732E+00    0.32721902E+01    0.30446912E+00
H     0.22876758E+00    0.22587780E+01    0.23682353E+00
H     0.91446968E+00    0.35768468E+01    0.93159966E+00
O     0.13450802E+01   -0.37218117E+01    0.32234446E+00
H     0.20162604E+01   -0.44415366E+01    0.67711741E+00
H     0.16452166E+01   -0.36310665E+01   -0.69915410E+00
O    -0.25020076E+01   -0.20461190E+01    0.53123510E+00
H    -0.23936532E+01   -0.18003052E+01    0.14967834E+01
H    -0.20079552E+01   -0.29455582E+01    0.42630732E+00
O     0.18871608E+01    0.22833312E+01   -0.41102131E+01
H     0.94500248E+00    0.26904844E+01   -0.40662604E+01
H     0.23902582E+01    0.27335051E+01   -0.34100669E+01
O    -0.30863861E+01    0.19965077E+01    0.27473545E+01
H    -0.34899768E+01    0.26432120E+01    0.34215499E+01
H    -0.27512976E+01    0.25363756E+01    0.19593165E+01
O     0.50498219E+01   -0.36357901E+01    0.35553021E+00
H     0.45017063E+01   -0.44077221E+01    0.44474785E+00
H     0.50916027E+01   -0.32362187E+01    0.12604339E+01
O    -0.40666913E+01    0.39246839E+01    0.42992865E+01
H    -0.32634424E+01    0.45083257E+01    0.44212750E+01
H    -0.45275899E+01    0.43538721E+01    0.35519987E+01
O     0.41100784E+01    0.19818015E+01    0.25018734E+01
H     0.46363017E+01    0.16578032E+01    0.16569755E+01
H     0.47460815E+01    0.25373930E+01    0.30079235E+01
O     0.13162565E+01   -0.30523804E+00   -0.40804670E+01
H     0.29625947E+00   -0.18491395E+00   -0.39317310E+01
H     0.16413553E+01    0.59897161E+00   -0.41467419E+01
O     0.48029823E+01    0.12920569E+01   -0.28778958E+01
H     0.46206681E+01    0.10592567E+01   -0.38089298E+01
H     0.50969923E+01    0.49508200E+00   -0.23816083E+01
O     0.45805282E+01   -0.28475728E+01    0.29635932E+01
H     0.42928347E+01   -0.19392804E+01    0.33991930E+01
H     0.39379936E+01   -0.35007045E+01    0.33370901E+01
O    -0.27004501E+01   -0.35126725E+00   -0.15990802E+01
H    -0.31354869E+01   -0.10546706E+01   -0.21862702E+01
H    -0.25607985E+01   -0.82756625E+00   -0.72099276E+00
O    -0.24883432E+01    0.35664815E+01    0.62366632E+00
H    -0.28866437E+01    0.30819739E+01   -0.17246649E+00
H    -0.15104463E+01    0.36209532E+01    0.45239327E+00
O    -0.46207340E+01   -0.30347992E+01    0.21240029E+01
H    -0.40841958E+01   -0.28277239E+01    0.12947437E+01
H    -0.41158674E+01   -0.25998308E+01    0.28827028E+01
O    -0.42578740E+01    0.11075134E+00    0.52377839E+01
H    -0.41281990E+01    0.11002911E+01    0.51298831E+01
H    -0.51336989E+01   -0.37057050E-01    0.57003185E+01
O     0.12322026E+01    0.50044552E+01   -0.26656028E+01
H     0.17215497E+01    0.58254337E+01   -0.29018642E+01
H     0.14955730E+01    0.46382813E+01   -0.18351351E+01
O     0.18201366E+00   -0.48696185E+01    0.44272546E+01
H    -0.25465532E+00   -0.48863286E+01    0.53287323E+01
H    -0.31052196E+00   -0.54944188E+01    0.38121931E+01
O    -0.10322714E+01   -0.66113173E+01    0.16848217E+01
H    -0.11617731E+01   -0.57658555E+01    0.11978479E+01
H    -0.15763963E+01   -0.73092154E+01    0.13192994E+01
O    -0.39590123E+01   -0.25198458E+01   -0.27037870E+01
H    -0.42893568E+01   -0.29272624E+01   -0.18106367E+01
H    -0.47325392E+01   -0.24417261E+01   -0.33009312E+01
O     0.25985079E+01   -0.26213917E+01   -0.46301021E+01
H     0.20881906E+01   -0.17582139E+01   -0.44693324E+01
H     0.29850872E+01   -0.25812256E+01   -0.55209980E+01
O     0.20553000E+01   -0.37198120E+01   -0.22625840E+01
H     0.22492664E+01   -0.33455399E+01   -0.31432677E+01
H     0.19464530E+01   -0.47247076E+01   -0.24118076E+01
O     0.12040181E+01   -0.13355780E+01    0.16935522E+01
H     0.71121794E+00   -0.15931913E+01    0.25293340E+01
H     0.13572936E+01   -0.21794397E+01    0.12053983E+01
O    -0.11943195E+01   -0.44195737E+01    0.34665258E-01
H    -0.11636319E+01   -0.49062768E+01   -0.84450207E+00
H    -0.25376644E+00   -0.41321192E+01    0.21715057E+00
O    -0.10537345E+01   -0.39542406E+01   -0.65081580E+01
H    -0.12672814E+01   -0.38907240E+01   -0.55336105E+01
H    -0.14202956E+01   -0.31350654E+01   -0.69450624E+01
O     0.30080422E+01   -0.56291782E+01    0.12847439E+01
H     0.30425594E+01   -0.53407376E+01    0.22075617E+01
H     0.26734442E+01   -0.65546631E+01    0.13045537E+01
O    -0.28235942E+01   -0.15860519E+01    0.35786421E+01
H    -0.32898858E+01   -0.95726589E+00    0.42092672E+01
H    -0.18666655E+01   -0.16526990E+01    0.37970026E+01
O    -0.45622095E+01    0.25475490E+01   -0.51915109E+01
H    -0.54325262E+01    0.23118350E+01   -0.55636652E+01
H    -0.39037017E+01    0.18665595E+01   -0.55301744E+01
O     0.56548887E+01    0.13272930E+01    0.41203638E+00
H     0.64677053E+01    0.17286270E+01    0.56676816E-04
H     0.54633921E+01    0.50441791E+00   -0.10657396E+00
O     0.16665037E+01    0.12864537E+01    0.65831892E+01
H     0.14204207E+01    0.53275145E+00    0.59908551E+01
H     0.78553985E+00    0.16431720E+01    0.69516107E+01
O    -0.38993516E+01    0.20479136E+01   -0.11221461E+01
H    -0.34248762E+01    0.11893647E+01   -0.14109058E+01
H    -0.45284169E+01    0.17512370E+01   -0.35300334E+00
O     0.29579920E+01    0.27452102E+01   -0.14503970E+01
H     0.36679829E+01    0.21576631E+01   -0.18405001E+01
H     0.22352159E+01    0.21809199E+01   -0.10597154E+01
O    -0.64762701E+00    0.32705136E+01   -0.35455000E+01
H    -0.55456003E-01    0.40425289E+01   -0.31906136E+01
H    -0.16047872E+01    0.36050302E+01   -0.34306157E+01
O    -0.12150377E+01    0.61980192E+00   -0.36730539E+01
H    -0.99504201E+00    0.15618912E+01   -0.35971905E+01
H    -0.17223208E+01    0.31147986E+00   -0.28275253E+01
O     0.68798015E+00    0.55659400E+01    0.33362441E+01
H     0.13032617E+01    0.60104449E+01    0.39790796E+01
H     0.12329746E+01    0.49553282E+01    0.27556196E+01
O     0.23320413E+01    0.39832399E+01    0.18495668E+01
H     0.28394860E+01    0.32252443E+01    0.21302280E+01
H     0.29476374E+01    0.44239728E+01    0.11695069E+01
O     0.28724303E+01   -0.48608627E+01    0.38814464E+01
H     0.33148025E+01   -0.51892700E+01    0.46328746E+01
H     0.18692993E+01   -0.47732834E+01    0.40884373E+01
O    -0.17632814E+01   -0.36722928E+01   -0.39089720E+01
H    -0.25174361E+01   -0.32121668E+01   -0.34788786E+01
H    -0.13078270E+01   -0.42434177E+01   -0.32449163E+01
O    -0.13641067E+00   -0.21727368E+01    0.39178170E+01
H     0.49045836E+00   -0.17648166E+01    0.46235382E+01
H    -0.55945011E-01   -0.31346997E+01    0.40190414E+01
O     0.18662116E+01   -0.64202591E+01   -0.26865679E+01
H     0.21406290E+01   -0.66589091E+01   -0.36041424E+01
H     0.25418652E+01   -0.67567053E+01   -0.20444922E+01
O     0.52321245E+01   -0.86487308E+00   -0.11754163E+01
H     0.42507062E+01   -0.90850557E+00   -0.13493250E+01
H     0.54745976E+01   -0.17607709E+01   -0.78142846E+00
O    -0.97008008E+00    0.17899176E+01    0.71167658E+01
H    -0.17936505E+01    0.22034933E+01    0.74036722E+01
H    -0.11003554E+01    0.16045886E+01    0.61384505E+01
O    -0.27535180E+01    0.68109173E+00   -0.58987872E+01
H    -0.21640692E+01    0.59661205E+00   -0.50561173E+01
H    -0.21844081E+01    0.63306118E+00   -0.67093767E+01
O    -0.10675072E+01    0.13733073E+01    0.44624598E+01
H    -0.28528769E+00    0.17951536E+01    0.39920063E+01
H    -0.18458721E+01    0.14524678E+01    0.38298026E+01
O     0.17411953E+01   -0.13611071E+01    0.56282763E+01
H     0.20656670E+01   -0.12151463E+01    0.65429729E+01
H     0.25221459E+01   -0.10559947E+01    0.50190881E+01
O     0.37527557E+01   -0.37099304E+00    0.41121098E+01
H     0.35962886E+01    0.18550523E+00    0.33152180E+01
H     0.41880239E+01    0.27862635E+00    0.48034259E+01
O    -0.32469228E+01    0.37624310E+01   -0.31688016E+01
H    -0.36056541E+01    0.32284539E+01   -0.23753440E+01
H    -0.37724721E+01    0.34695358E+01   -0.39446372E+01
O    -0.19635534E+01    0.55369942E+01    0.36993220E+01
H    -0.23306464E+01    0.58431070E+01    0.28698672E+01
H    -0.96818485E+00    0.55245344E+01    0.36023296E+01
O    -0.78126330E+00   -0.57564830E+01   -0.23042837E+01
H    -0.13297879E+01   -0.63032721E+01   -0.29528495E+01
H     0.13627628E+00   -0.59786033E+01   -0.24067067E+01
         159
Time step:                   4 Sim. Time [au]          80.00
O     0.48287570E+00    0.63790413E+00    0.53549917E-01
H     0.86893690E+00   -0.47412243E-01    0.71650346E+00
H    -0.16559502E+00    0.11806156E+00   -0.50987191E+00
O     0.26859533E+01   -0.10742476E+01   -0.18202633E+01
H     0.24802538E+01   -0.20697116E+01   -0.18037237E+01
H     0.21636054E+01   -0.68523459E+00   -0.26037017E+01
O    -0.50589491E+01    0.10662353E+01    0.11266249E+01
H    -0.56605948E+01    0.39230545E+00    0.15226045E+01
H    -0.43052164E+01    0.12586227E+01    0.18182652E+01
O     0.40383412E+01    0.47906586E+01   -0.72137147E-01
H     0.36878911E+01    0.39776122E+01   -0.63899974E+00
H     0.48812416E+01    0.50992957E+01   -0.45170814E+00
O    -0.44912948E+01    0.49722502E+01    0.17812283E+01
H    -0.37502076E+01    0.45098760E+01    0.13334240E+01
H    -0.50400848E+01    0.53533965E+01    0.10771685E+01
O     0.17758683E+00    0.32716401E+01    0.30346196E+00
H     0.21738497E+00    0.22679010E+01    0.24534524E+00
H     0.90401997E+00    0.35694658E+01    0.93241419E+00
O     0.13423909E+01   -0.37235042E+01    0.32146197E+00
H     0.20121939E+01   -0.44460641E+01    0.66318026E+00
H     0.16445570E+01   -0.36387797E+01   -0.70096728E+00
O    -0.25010307E+01   -0.20491989E+01    0.53103398E+00
H    -0.24021759E+01   -0.18159734E+01    0.14879189E+01
H    -0.20063290E+01   -0.29415132E+01    0.43814393E+00
O     0.18863515E+01    0.22840369E+01   -0.41093236E+01
H     0.95327388E+00    0.26870364E+01   -0.40600723E+01
H     0.23823305E+01    0.27256234E+01   -0.34238135E+01
O    -0.30872043E+01    0.19968281E+01    0.27449589E+01
H    -0.34901322E+01    0.26269233E+01    0.34186450E+01
H    -0.27572714E+01    0.25263741E+01    0.19635523E+01
O     0.50480342E+01   -0.36385482E+01    0.35398004E+00
H     0.45115013E+01   -0.44003711E+01    0.44943057E+00
H     0.50938264E+01   -0.32396576E+01    0.12468631E+01
O    -0.40672073E+01    0.39255783E+01    0.42985543E+01
H    -0.32761204E+01    0.45015900E+01    0.44279058E+01
H    -0.45193037E+01    0.43554183E+01    0.35670513E+01
O     0.41109732E+01    0.19800082E+01    0.25004589E+01
H     0.46443718E+01    0.16481322E+01    0.16688233E+01
H     0.47300452E+01    0.25354400E+01    0.29882888E+01
O     0.13151775E+01   -0.30346168E+00   -0.40814077E+01
H     0.30241323E+00   -0.18574224E+00   -0.39219139E+01
H     0.16378251E+01    0.58586667E+00   -0.41354782E+01
O     0.48036509E+01    0.12900790E+01   -0.28781946E+01
H     0.46284201E+01    0.10589502E+01   -0.37972233E+01