         159
 Time step:           1
O   0.2641089284E-03 -0.2496757264E-03  0.2676449037E-03
H  -0.2431690420E-03 -0.2944410694E-03  0.2118035965E-03
H   0.3212746654E-04  0.1274751688E-03  0.6325872569E-03
O  -0.6262167303E-05  0.4043781372E-05  0.1466007096E-04
H   0.5882962044E-03  0.9795411305E-04  0.3627218901E-05
H   0.5789566777E-03 -0.1125402602E-03 -0.1787075874E-03
O  -0.1142861630E-03  0.1813650336E-03  0.2137579965E-03
H   0.9733561475E-05  0.2994256212E-03 -0.2249132996E-03
H   0.3340110431E-03 -0.1156248065E-02  0.7823761976E-03
O  -0.5246674246E-04 -0.1613694759E-04  0.1055118259E-03
H   0.3188904106E-04 -0.4963203747E-03 -0.1616263677E-03
H  -0.7359443223E-03 -0.2150256197E-03 -0.3560302546E-04
O   0.1325576088E-03  0.2555251303E-03 -0.2017666939E-04
H  -0.2294575352E-03  0.1200157157E-02  0.3384209880E-03
H   0.6640463515E-03 -0.3088976627E-03 -0.2582879786E-03
O   0.2116138356E-03 -0.2805068596E-04 -0.1379209013E-03
H  -0.1164221381E-02 -0.4621460684E-04  0.7205639689E-03
H  -0.2669276914E-03 -0.2724457105E-03  0.8216117177E-03
O  -0.3555264917E-03 -0.1211905521E-03 -0.2903730413E-04
H   0.4553375714E-03 -0.1333003239E-02 -0.1048585520E-02
H   0.4072051911E-03 -0.6699547290E-03 -0.1558339396E-02
O   0.5516121443E-04 -0.2465187920E-03 -0.7674110924E-04
H  -0.6657594091E-03 -0.1291539271E-02  0.9722603525E-04
H   0.6735316451E-03 -0.6287589812E-03  0.1075814612E-02
O  -0.3329216262E-04  0.1001872252E-04  0.6320449933E-04
H  -0.4687194052E-03  0.1991601681E-03  0.6222561633E-03
H  -0.3078271386E-03 -0.4181021085E-03 -0.9560107437E-03
O  -0.6800792243E-04 -0.1543442582E-04 -0.2096724434E-03
H  -0.4081226893E-03 -0.1127836666E-02  0.4933612976E-03
H  -0.2210258002E-03 -0.5021028586E-03 -0.3792209712E-03
O  -0.2791920108E-03 -0.4440142439E-03 -0.2896031561E-03
H   0.1294874009E-02  0.7370998736E-03  0.6813472614E-03
H   0.5708257375E-03 -0.1202356997E-03 -0.1395809188E-02
O  -0.8048252310E-04  0.6085728431E-04 -0.7990338388E-04
H  -0.7539292140E-03 -0.2053632309E-03  0.1072244094E-02
H   0.5655834989E-03  0.4987932231E-03  0.1359733547E-02
O  -0.8445844128E-05 -0.1128854159E-03 -0.6609604204E-04
H   0.9008771233E-03 -0.9216005848E-03 -0.9293876487E-04
H  -0.3654790140E-03  0.3849895408E-03 -0.6377913021E-03
O  -0.6542340061E-04  0.2480318019E-03 -0.1494793062E-03
H  -0.6692847938E-03 -0.4854430072E-04  0.1582339716E-02
H  -0.3667119000E-03 -0.1823335702E-02  0.1589763115E-02
O   0.9774170673E-04 -0.2597115464E-03 -0.8810133452E-05
H   0.9458944000E-03 -0.1759336162E-03  0.5744073048E-03
H  -0.1125251720E-02  0.8260255935E-03  0.4323189491E-03
O  -0.1019186220E-03 -0.1983824496E-03 -0.1161132581E-03
H  -0.1758665606E-02  0.9331790997E-04  0.1432841235E-02
H   0.4199650760E-03  0.5301770780E-03  0.4928361607E-03
O  -0.1402837570E-03  0.1908952585E-03  0.3270342808E-03
H   0.4611687193E-03  0.1218791722E-03 -0.4585169054E-04
H   0.1315249032E-02  0.1743348184E-03 -0.3318171911E-03
O  -0.6146010947E-04 -0.1205976775E-03 -0.1037185440E-03
H   0.9424822997E-03 -0.3004725175E-03 -0.3584033314E-03
H  -0.1175940961E-02  0.1462781181E-02 -0.1653894763E-06
O  -0.3396104772E-03  0.2956563255E-03  0.1722752394E-03
H   0.6760457791E-03 -0.1036554377E-02  0.1507458463E-04
H  -0.6824519599E-03  0.2099978314E-03  0.4165242958E-03
O   0.1652522947E-03  0.1965796340E-03  0.1649082640E-03
H  -0.1474657788E-03  0.4146601946E-03 -0.8516579748E-04
H  -0.1177337699E-03  0.9269736727E-03  0.4621678588E-03
O   0.2971169636E-03 -0.8552887383E-04 -0.3211993099E-04
H  -0.2641715359E-03 -0.3596137948E-03 -0.4804746554E-03
H  -0.2282663296E-02  0.4886043532E-03 -0.1489940343E-02
O   0.1321367233E-04  0.1191186868E-03 -0.2344981429E-03
H   0.1179887618E-02  0.4021685043E-03  0.4244644422E-03
H   0.3363981507E-03 -0.1392571841E-02  0.1055492466E-02
O  -0.8541541189E-04  0.1318229776E-03 -0.1921643312E-03
H   0.4763381719E-03  0.2921395879E-03  0.1650430104E-02
H   0.7431085151E-03  0.7812951216E-03  0.2520012719E-03
O   0.2069461625E-03  0.1892412438E-03 -0.1236830006E-04
H  -0.3160805056E-03 -0.8389051213E-03  0.8000084545E-03
H   0.8702833327E-04  0.6134554609E-03  0.1300150338E-02
O  -0.1037226734E-03 -0.5217965132E-04 -0.2700514808E-03
H   0.1408950781E-03 -0.2070482693E-03  0.7142064805E-03
H  -0.3317741583E-03  0.8099450281E-03  0.2962138959E-03
O   0.8486009052E-04 -0.1880530825E-04  0.9466568201E-04
H  -0.9550067874E-03 -0.8271023965E-03  0.1446649871E-02
H  -0.1014995634E-03 -0.5332180734E-03  0.8077996530E-03
O  -0.2819429631E-03  0.8923052509E-04  0.9523011717E-04
H   0.6995023403E-03 -0.6379245434E-03  0.1507530546E-03
H  -0.4303428194E-03  0.7060552303E-03  0.6419651932E-03
O   0.3347434580E-03  0.2792975080E-04 -0.8566045386E-04
H  -0.3096066777E-03 -0.1893008937E-03  0.2779088655E-03
H   0.1255803472E-03 -0.1127913408E-02 -0.9033581448E-04
O   0.3748669539E-03 -0.3022596716E-03 -0.8987176210E-04
H   0.6672051512E-03 -0.8916927468E-03 -0.5395637245E-03
H   0.2169335108E-03  0.5392603151E-03  0.8635814316E-03
O  -0.1501110758E-04 -0.4344120748E-04  0.2263893046E-03
H  -0.3557822943E-03 -0.8827167363E-03 -0.1214493317E-02
H  -0.2965500773E-03  0.4118411475E-03  0.1809759848E-03
O   0.1002500212E-03  0.2814593118E-03 -0.3887114603E-04
H  -0.5623515183E-03 -0.4068817519E-03 -0.5537158171E-03
H  -0.8436087234E-03 -0.7294390880E-04 -0.9736595631E-03
O  -0.1420237298E-03 -0.1918617997E-03 -0.4578310297E-04
H   0.3907889682E-03 -0.8755722094E-03  0.7533649321E-03
H  -0.6617943431E-03  0.6036633992E-03 -0.1238455696E-02
O   0.1784677285E-03 -0.1277996553E-03  0.8111991765E-04
H   0.7389271855E-03 -0.6821780008E-03  0.4426849396E-03
H   0.4692843554E-03  0.6207732083E-03  0.5674267888E-03
O   0.2363040265E-03 -0.1025194065E-03  0.1996499306E-03
H   0.7831107648E-03  0.3286400952E-03  0.6135718184E-04
H  -0.2328968798E-03 -0.1897506961E-04 -0.4247969703E-03
O   0.3671129805E-03 -0.7826422104E-04  0.1437997526E-03
H   0.1236962454E-02  0.2144843094E-03 -0.2853663090E-03
H  -0.5800886557E-03 -0.7821040001E-03 -0.4324001981E-04
O  -0.1991459542E-03 -0.1774692761E-03  0.9565660504E-04
H  -0.6198964768E-04  0.4196357587E-03  0.9461531606E-03
H  -0.7355885781E-03  0.5006340227E-03 -0.4384823461E-03
O  -0.2985156544E-03  0.2466518786E-03 -0.3348696472E-03
H   0.1256564699E-03  0.6356219858E-03 -0.3547627856E-03
H  -0.3096189857E-05  0.8997282341E-03 -0.3082527343E-03
O  -0.9138764279E-04 -0.1897585947E-03  0.6465184193E-04
H   0.2886907632E-03 -0.2206577939E-02 -0.8964470420E-03
H   0.5518312900E-03 -0.9256450565E-03  0.9345481104E-03
O  -0.2934466059E-03  0.2805926191E-04 -0.6360590340E-04
H  -0.9601285063E-04 -0.1259116390E-02  0.8103950376E-03
H  -0.9289334447E-03 -0.1815050353E-03  0.2663653506E-03
O   0.4738291116E-04  0.1465305866E-04  0.1613833486E-03
H  -0.4134322016E-04  0.2198802191E-02 -0.6871682494E-03
H  -0.1913397707E-03 -0.4203253922E-03 -0.2387977924E-03
O   0.6059228824E-04  0.2525899114E-04  0.1704868146E-03
H  -0.4638048766E-03  0.5923252663E-03 -0.2083078407E-02
H  -0.2546133354E-03  0.5113812496E-03  0.6621059250E-04
O  -0.3250095899E-04  0.9796267077E-04  0.7537937543E-04
H   0.2070530588E-03 -0.1021268750E-02 -0.4053219988E-03
H  -0.2662727035E-03 -0.6983995702E-04 -0.8044757400E-03
O   0.1343364400E-03 -0.1619027902E-03 -0.6629843655E-04
H   0.3675714493E-03 -0.3506461532E-03  0.2246563692E-03
H  -0.6620948404E-03  0.1047280414E-02 -0.1742937791E-03
O   0.6274716788E-04  0.7957849574E-04 -0.7867559921E-04
H   0.3489041967E-03  0.9141420392E-03  0.2409219323E-03
H  -0.5545814064E-04  0.6216234975E-03 -0.1030162023E-03
O  -0.1785288664E-03 -0.2384589972E-03 -0.2481505452E-03
H   0.6194253503E-03  0.3997137160E-03  0.4329970544E-03
H  -0.2815048657E-03  0.1988976050E-03  0.1140756139E-02
O   0.7876975703E-04  0.1110055952E-03 -0.4084460083E-04
H   0.1074031128E-03 -0.9704185608E-03 -0.6572076591E-03
H  -0.5544278091E-03  0.8191428554E-03  0.3185587918E-03
O  -0.8177274324E-04  0.6961758570E-04  0.1099586273E-03
H   0.4379688406E-03 -0.1075179835E-03  0.2216073621E-03
H  -0.9651255140E-03  0.9919348487E-03 -0.6370093340E-03
O  -0.7316473589E-04  0.9611433998E-04 -0.1054926826E-03
H  -0.2169137087E-04  0.4413500558E-03 -0.4915449121E-03
H  -0.7141809509E-04  0.7359173741E-03  0.2718769277E-03
O  -0.2209721205E-03 -0.2355249328E-04 -0.8224348166E-04
H   0.7212219720E-03  0.7507220899E-03 -0.1066843508E-02
H   0.4576262050E-03  0.3612247326E-03  0.3568572839E-04
O  -0.1974584733E-03  0.6558739511E-04 -0.2473668347E-03
H   0.6821962019E-03 -0.2525649229E-04  0.7095364701E-03
H   0.5411390110E-03  0.7981649522E-03  0.1092133165E-02
O  -0.8520097402E-04  0.1032244691E-03 -0.2459094693E-03
H  -0.1806192652E-03 -0.1096294670E-03 -0.3272345880E-04
H   0.4316742396E-03  0.6162959890E-03  0.9374849631E-03
O   0.2938154626E-03  0.2813899652E-03 -0.1756268966E-04
H   0.1208302082E-02  0.8915845416E-03  0.1493756642E-02
H  -0.4022694396E-03 -0.3983991173E-03  0.1778803229E-03
O   0.5300204037E-04 -0.1267402909E-04 -0.3053048369E-04
H  -0.7476989485E-03  0.1121763316E-02 -0.1019001099E-02
H  -0.2051954195E-02  0.1117165386E-02 -0.1818873197E-03
         159
 Time step:           2
O   0.2528927299E-03 -0.2371639963E-03  0.2545353204E-03
H  -0.2739672954E-03 -0.3006838351E-03  0.1757767866E-03
H   0.5629958483E-04  0.1223480228E-03  0.6227753481E-03
O  -0.7713809453E-05  0.3557479535E-05  0.1101673959E-04
H   0.4639156053E-03  0.1221470689E-03 -0.2813235982E-04
H   0.4563126482E-03 -0.1149099675E-03 -0.1005815583E-03
O  -0.1405647601E-03  0.2057917100E-03  0.2983479286E-03
H  -0.7793341204E-04  0.4660469341E-03 -0.5458054957E-03
H   0.3578018053E-03 -0.1297369329E-02  0.6947292051E-03
O  -0.2795476049E-04 -0.2228548249E-04  0.7514145470E-04
H   0.6720441938E-04 -0.4636696978E-03 -0.1397747953E-04
H  -0.8347352784E-03 -0.9627848486E-04  0.1861028055E-03
O   0.1018509018E-03  0.2275205051E-03 -0.4259389391E-04
H  -0.4469172063E-03  0.1198905175E-02  0.4154520939E-03
H   0.8587418760E-03 -0.4694923536E-03  0.9265370582E-04
O   0.2248548847E-03 -0.3856165771E-04 -0.1185548937E-03
H  -0.1123751925E-02  0.3431639716E-03  0.7493177892E-03
H  -0.5680150503E-03 -0.4446261039E-03  0.5052345821E-03
O  -0.3509115576E-03 -0.1493771580E-03 -0.5331723963E-04
H   0.1455413638E-03 -0.1090386481E-02 -0.1292450928E-02
H   0.2614875118E-03 -0.7774649791E-03 -0.1139737741E-02
O   0.7421488356E-04 -0.2789832728E-03 -0.5601833794E-04
H  -0.7693048147E-03 -0.1474853600E-02 -0.3265585393E-03
H   0.4962884708E-03 -0.2365629545E-03  0.1177490267E-02
O  -0.4413617737E-04  0.3218776231E-04  0.6849214214E-04
H   0.4521566008E-04 -0.1577746918E-04  0.5568894861E-03
H  -0.4865010008E-03 -0.5390062014E-03 -0.1053081630E-02
O  -0.6783334923E-04  0.5609695569E-05 -0.2056128579E-03
H  -0.2340532844E-03 -0.1245313214E-02  0.1786233139E-03
H  -0.3423172297E-03 -0.6654664765E-03 -0.5160396527E-04
O  -0.2828382500E-03 -0.4427042628E-03 -0.2676744997E-03
H   0.1447669977E-02  0.9821322053E-03  0.6835329263E-03
H   0.4951972233E-03 -0.2769752414E-03 -0.1681488811E-02
O  -0.6622934970E-04  0.7358533713E-04 -0.7863651615E-04
H  -0.9649860608E-03 -0.4082721990E-03  0.8690199209E-03
H   0.6890071203E-03  0.3123689276E-03  0.1431560678E-02
O   0.2457260145E-04 -0.1272335529E-03 -0.8532138578E-04
H   0.8426968877E-03 -0.9019749986E-03  0.3200008780E-03
H  -0.7826880616E-03  0.1537235175E-03 -0.1068647751E-02
O  -0.8513916067E-04  0.2392248319E-03 -0.1350704742E-03
H  -0.1394330383E-03 -0.6997914694E-04  0.1416651171E-02
H  -0.4220220659E-03 -0.1823252901E-02  0.1493601679E-02
O   0.8294433592E-04 -0.2324228023E-03 -0.1963302862E-04
H   0.8662431759E-03 -0.9207250970E-04  0.8784282519E-03
H  -0.1046959094E-02  0.9006835369E-03  0.1728044664E-03
O  -0.1297708306E-03 -0.1873875152E-03 -0.9326486364E-04
H  -0.1658817002E-02 -0.4186332509E-03  0.1220923707E-02
H   0.6833272645E-03  0.8344437694E-03  0.3605476922E-03
O  -0.1141261212E-03  0.1237919386E-03  0.2574107937E-03
H   0.5054631560E-03  0.3486117041E-03  0.2194453086E-03
H   0.9693305152E-03  0.2803625799E-03 -0.5674094900E-03
O  -0.4259643212E-04 -0.1083383923E-03 -0.1070525941E-03
H   0.9208151598E-03 -0.1064852855E-03  0.1565789619E-04
H  -0.1250306569E-02  0.1169218530E-02  0.5624453407E-04
O  -0.3527587586E-03  0.3496375060E-03  0.1871701805E-03
H   0.5309619533E-03 -0.1249327327E-02  0.5050177194E-03
H  -0.9720076183E-03  0.4591410437E-04  0.5743467447E-04
O   0.1616231611E-03  0.2511999679E-03  0.1999635451E-03
H  -0.2756520334E-03 -0.1046927023E-03 -0.2884702057E-04
H   0.3987732483E-03  0.1187350646E-02  0.2436218666E-03
O   0.2149395396E-03 -0.4263496777E-04 -0.2236087679E-04
H  -0.3619395743E-03 -0.6004062747E-03 -0.1744232590E-03
H  -0.1574849518E-02  0.4343541775E-03 -0.1152991752E-02
O  -0.1302364010E-04  0.8434534374E-04 -0.1891032374E-03
H   0.1176070897E-02  0.3258336894E-03 -0.8354230922E-04
H   0.4718371380E-03 -0.9122756318E-03  0.1160429905E-02
O  -0.1124190783E-03  0.1521757491E-03 -0.2362944376E-03
H   0.5693905213E-03 -0.1924136253E-05  0.2021849896E-02
H   0.1085239859E-02  0.1271006126E-02  0.4273405181E-03
O   0.1451590810E-03  0.1475773508E-03  0.4684361359E-05
H  -0.9126088899E-04 -0.4683219479E-03  0.1564496128E-03
H   0.3715298201E-03  0.4837445695E-03  0.1359195710E-02
O  -0.1269185561E-03 -0.4083044730E-04 -0.3555008363E-03
H   0.4093634824E-03 -0.6306876001E-03  0.7534953450E-03
H  -0.6431990557E-03  0.1004626177E-02  0.8452928092E-03
O   0.7604592192E-04 -0.4118835527E-04  0.7239587104E-04
H  -0.9140152583E-03 -0.8578248824E-03  0.1496183330E-02
H  -0.1407599114E-04 -0.1899420703E-04  0.7793446953E-03
O  -0.3028887197E-03  0.6833143237E-04  0.1119931792E-03
H   0.9352462016E-03 -0.5928882603E-03 -0.1997081552E-03
H  -0.5148314919E-03  0.1056710830E-02  0.8579885098E-03
O   0.4878871205E-03  0.3293516419E-04 -0.1387183133E-03
H  -0.4142630191E-03 -0.2786168620E-04  0.8462431054E-03
H  -0.1623096976E-03 -0.1720630985E-02 -0.2416782228E-03
O   0.3920558924E-03 -0.3015284837E-03 -0.9268723194E-04
H   0.7891368690E-03 -0.9496169143E-03 -0.9895744535E-03
H   0.4439132613E-03  0.1186911789E-03  0.1248482489E-02
O  -0.2509189343E-04 -0.7231015107E-04  0.2639236734E-03
H  -0.4267256106E-03 -0.1093067522E-02 -0.1589158302E-02
H  -0.1700402821E-03  0.9549840223E-03  0.2200868437E-03
O   0.9276932402E-04  0.2532062515E-03 -0.1825797932E-04
H  -0.2754510881E-03 -0.5662225875E-03 -0.6919568593E-03
H  -0.1023193766E-02 -0.2368557579E-04 -0.8626595272E-03
O  -0.1180691208E-03 -0.1634315991E-03 -0.5213427798E-04
H   0.6724857791E-03 -0.5812598627E-03  0.7250745762E-03
H  -0.7200265303E-03  0.6650827699E-03 -0.8311047554E-03
O   0.1815472548E-03 -0.1177504203E-03  0.4889756204E-04
H   0.2285170325E-03 -0.8372527310E-03  0.6027947553E-03
H   0.4973890125E-03  0.8095861470E-03  0.6741594064E-03
O   0.1497639899E-03 -0.8369134235E-04  0.1433180535E-03
H   0.6610352307E-03  0.5200938640E-03  0.2791366377E-03
H   0.1567381665E-03 -0.1933508331E-03 -0.4905319730E-03
O   0.2690059365E-03 -0.8340980242E-04  0.1176898122E-03
H   0.7253731667E-03  0.4743273813E-03 -0.6524069412E-04
H  -0.1553657908E-03 -0.4939178776E-03 -0.3282435746E-03
O  -0.2150692270E-03 -0.2139009316E-03  0.1021412550E-03
H  -0.3433072459E-03  0.6249124995E-03  0.1149864739E-02
H  -0.4059917963E-03  0.7663759329E-03 -0.6633550844E-03
O  -0.3646736160E-03  0.3300542106E-03 -0.3907282756E-03
H  -0.1418105893E-03  0.3794920001E-03 -0.5890792767E-03
H   0.3927768031E-03  0.9206976853E-03 -0.4088692773E-03
O  -0.9133452599E-04 -0.1672923401E-03  0.7734685349E-04
H   0.1874670917E-03 -0.2113095308E-02 -0.7606015362E-03
H   0.7116789415E-03 -0.6651472344E-03  0.4631871260E-03
O  -0.2678659193E-03  0.2969028935E-04 -0.5874150406E-04
H  -0.4142474921E-03 -0.1568010647E-02  0.4717443821E-03
H  -0.1132550295E-02  0.8501314217E-04  0.5503254793E-03
O   0.6915989452E-04  0.1631732011E-04  0.1543477588E-03
H  -0.1351332668E-03  0.2445133147E-02 -0.7967270423E-03
H  -0.4365157847E-03 -0.6351070626E-03  0.2561625986E-04
O   0.4141430462E-04  0.2433258663E-04  0.1839915617E-03
H  -0.6020285298E-03  0.6667482665E-03 -0.2239110074E-02
H   0.2006448127E-03  0.4479373508E-03  0.1105984828E-04
O  -0.3595265447E-04  0.9211578081E-04  0.9845414189E-04
H   0.4776688891E-03 -0.1202438616E-02 -0.5190428016E-03
H  -0.4601411548E-03  0.1675767476E-03 -0.1040131532E-02
O   0.1513104411E-03 -0.1686394768E-03 -0.4773377182E-04
H   0.1096180979E-03 -0.5641794072E-03 -0.7582572512E-04
H  -0.6882114538E-03  0.1351796987E-02 -0.1945913169E-03
O   0.8561197563E-04  0.6101573525E-04 -0.8095245758E-04
H   0.2391673562E-03  0.9903991876E-03  0.6686263521E-03
H  -0.3601756560E-03  0.7487938348E-03 -0.4405432763E-03
O  -0.1933903719E-03 -0.2772690629E-03 -0.2497601842E-03
H   0.9268020824E-03  0.3887738247E-03  0.5062588698E-03
H  -0.4650123382E-03  0.6648128094E-03  0.1009861325E-02
O   0.7757937045E-04  0.1629216436E-03 -0.6964405677E-04
H   0.6101588578E-03 -0.1580169759E-02 -0.1098303452E-02
H  -0.7254318560E-03  0.1238367253E-02  0.8547149897E-03
O  -0.8292753794E-04  0.9600806157E-04  0.1578319857E-03
H   0.3836436216E-03 -0.9702255621E-04 -0.1245156740E-03
H  -0.1774564808E-02  0.1528234945E-02 -0.3982353494E-03
O  -0.8211145099E-04  0.1354047693E-03 -0.1679514446E-03
H  -0.5666928968E-03  0.2929816908E-03 -0.3240189606E-03
H   0.3177808671E-03  0.9395685014E-03  0.6008615668E-03
O  -0.2030626484E-03 -0.1148228038E-04 -0.7688254689E-04
H   0.6158494747E-03  0.7480404098E-03 -0.1574007848E-02
H   0.1356562615E-03  0.2668256831E-03  0.3138496114E-03
O  -0.1380871954E-03  0.8186725396E-04 -0.1789309218E-03
H   0.5898722441E-03 -0.1647106596E-03  0.8123088455E-03
H   0.1461426158E-03  0.2231391801E-03  0.4097358227E-03
O  -0.7906020183E-04  0.6039484709E-04 -0.1697364563E-03
H   0.1426403301E-04  0.1134138332E-03 -0.3808992599E-03
H   0.4428372647E-03  0.4854334380E-03  0.8941400022E-03
O   0.2651135367E-03  0.2487085853E-03 -0.3009290633E-04
H   0.1172239424E-02  0.6629758198E-03  0.1544170278E-02
H  -0.6860487663E-03 -0.3391450295E-03  0.1481951456E-03
O   0.4589841988E-04 -0.3215360798E-04 -0.5316195226E-04
H  -0.4532966862E-03  0.1458942677E-02 -0.7188799491E-03
H  -0.2344522010E-02  0.1170055604E-02 -0.1997902179E-03
         159
 Time step:           3
O   0.2494773738E-03 -0.2312086835E-03  0.2493523833E-03
H  -0.3048775184E-03 -0.3195927724E-03  0.1543935104E-03
H   0.7124200174E-04  0.1132471531E-03  0.6223674202E-03
O  -0.9347278318E-05  0.2863967763E-05  0.7446976438E-05
H   0.3586951209E-03  0.1477030672E-03 -0.5110916507E-04
H   0.3542436779E-03 -0.1188830168E-03 -0.3105625385E-04
O  -0.1826868223E-03  0.2545003949E-03  0.4291144567E-03
H  -0.2412917690E-03  0.6769252666E-03 -0.9797814276E-03
H   0.4161526288E-03 -0.1562337348E-02  0.6259330829E-03
O  -0.1017797217E-04 -0.3564870203E-04  0.5649112542E-04
H   0.9978823848E-04 -0.5031124097E-03  0.1537034778E-03
H  -0.1020904481E-02  0.4936230017E-04  0.4369388735E-03
O   0.7375575793E-04  0.2024563314E-03 -0.5761425313E-04
H  -0.5792460262E-03  0.1148670469E-02  0.4520672877E-03
H   0.9801806934E-03 -0.5763965938E-03  0.3556485537E-03
O   0.2412632519E-03 -0.4794158526E-04 -0.1028606208E-03
H  -0.1095132531E-02  0.6979342101E-03  0.7885889107E-03
H  -0.8541523390E-03 -0.6160628452E-03  0.2163735137E-03
O  -0.2947551724E-03 -0.1605147507E-03 -0.7494981459E-04
H  -0.2129826957E-03 -0.6681147502E-03 -0.1349799147E-02
H   0.4981706191E-04 -0.7687437149E-03 -0.5107420697E-03
O   0.8823904328E-04 -0.2930885607E-03 -0.3170384742E-04
H  -0.8120476687E-03 -0.1517590837E-02 -0.6918978937E-03
H   0.2734912515E-03  0.1816116342E-03  0.1167696678E-02
O  -0.6399771902E-04  0.5478388654E-04  0.7828804910E-04
H   0.5300262463E-03 -0.2197733457E-03  0.5657835409E-03
H  -0.6607607505E-03 -0.6736613939E-03 -0.1209330409E-02
O  -0.7330329635E-04  0.2257867665E-04 -0.2171913506E-03
H  -0.8574366652E-04 -0.1430827297E-02 -0.1218092269E-03
H  -0.4859174342E-03 -0.8482598576E-03  0.2503735810E-03
O  -0.1992781025E-03 -0.3087544757E-03 -0.1772112248E-03
H   0.1074491855E-02  0.7880552731E-03  0.4996572404E-03
H   0.2880638306E-03 -0.3085759793E-03 -0.1381815196E-02
O  -0.5433796219E-04  0.8182922758E-04 -0.7322213963E-04
H  -0.1130421750E-02 -0.5685970652E-03  0.7032161232E-03
H   0.7617297424E-03  0.1912382505E-03  0.1439560936E-02
O   0.6488761638E-04 -0.1573425358E-03 -0.1184624449E-03
H   0.8132328908E-03 -0.9329912129E-03  0.8514835282E-03
H  -0.1292133097E-02 -0.7274144890E-04 -0.1619359565E-02
O  -0.9504340025E-04  0.1896411236E-03 -0.1023163167E-03
H   0.3552265146E-03 -0.7565661839E-04  0.1068498734E-02
H  -0.3663233805E-03 -0.1431437472E-02  0.1187025296E-02
O   0.6884323840E-04 -0.2005415998E-03 -0.2587659828E-04
H   0.7709907354E-03 -0.4352521722E-04  0.1042795341E-02
H  -0.9363602258E-03  0.8789437325E-03 -0.1309377143E-04
O  -0.1378926063E-03 -0.1460022310E-03 -0.5761280106E-04
H  -0.1304341825E-02 -0.8629237697E-03  0.8211273495E-03
H   0.7996026644E-03  0.9449798849E-03  0.1960472954E-03
O  -0.9887415515E-04  0.7974716164E-04  0.2159108671E-03
H   0.5604232791E-03  0.5368238346E-03  0.4397623168E-03
H   0.7456273431E-03  0.3644844377E-03 -0.7609221508E-03
O  -0.3120218139E-04 -0.1002671595E-03 -0.1112906648E-03
H   0.9112040865E-03  0.4297315364E-04  0.3125121225E-03
H  -0.1279333537E-02  0.9548990871E-03  0.9296960549E-04
O  -0.3141943205E-03  0.3507308090E-03  0.1733519026E-03
H   0.2984644833E-03 -0.1266413347E-02  0.9256983087E-03
H  -0.1104961652E-02 -0.1159557942E-03 -0.3020398097E-03
O   0.1626537980E-03  0.3205122628E-03  0.2456171396E-03
H  -0.4156085651E-03 -0.6724634422E-03  0.2911333975E-04
H   0.9763066256E-03  0.1499938297E-02  0.1314405756E-04
O   0.1865663906E-03 -0.1783728913E-04 -0.2842563106E-04
H  -0.4665392875E-03 -0.8454084487E-03  0.2258892235E-04
H  -0.1271414973E-02  0.4211378519E-03 -0.9633790884E-03
O  -0.3169055053E-04  0.5152076171E-04 -0.1411197411E-03
H   0.1088032104E-02  0.2421260763E-03 -0.4710464472E-03
H   0.5411517107E-03 -0.4768003916E-03  0.1159853130E-02
O  -0.1144443984E-03  0.1500359080E-03 -0.2347344514E-03
H   0.5453383487E-03 -0.2376838833E-03  0.2010067025E-02
H   0.1167687197E-02  0.1468608853E-02  0.4690786281E-03
O   0.9958707798E-04  0.1158434105E-03  0.2435279469E-04
H   0.1152235034E-03 -0.1512102636E-03 -0.4116354526E-03
H   0.5761884551E-03  0.3975028425E-03  0.1406293288E-02
O  -0.1454911732E-03 -0.2658761566E-04 -0.4198883098E-03
H   0.6668740498E-03 -0.1037483008E-02  0.7338509179E-03
H  -0.9067357224E-03  0.1151800459E-02  0.1306436090E-02
O   0.6217061802E-04 -0.6116812172E-04  0.5694555952E-04
H  -0.7990124865E-03 -0.7946471960E-03  0.1344481561E-02
H   0.6308788329E-04  0.4268101125E-03  0.7001364299E-03
O  -0.3341136633E-03  0.5340411001E-04  0.1342083845E-03
H   0.1183336050E-02 -0.5621047610E-03 -0.5361097455E-03
H  -0.6017416118E-03  0.1383119982E-02  0.1060182559E-02
O   0.5897790135E-03  0.3345148128E-04 -0.1783117188E-03
H  -0.4663161015E-03  0.1501198860E-03  0.1349621556E-02
H  -0.4086680932E-03 -0.2127705394E-02 -0.3769240873E-03
O   0.3462641200E-03 -0.2523220929E-03 -0.8288355877E-04
H   0.7711177044E-03 -0.8475419088E-03 -0.1224517343E-02
H   0.5956514923E-03 -0.3145988906E-03  0.1413217485E-02
O  -0.3305198682E-04 -0.9579446268E-04  0.2704005846E-03
H  -0.4533582245E-03 -0.1160699334E-02 -0.1690367862E-02
H  -0.4337192973E-04  0.1372659872E-02  0.2397529567E-03
O   0.7205806339E-04  0.2005275959E-03 -0.3598926266E-05
H  -0.1799754871E-04 -0.6019519940E-03 -0.6945159526E-03
H  -0.9797807085E-03  0.2531114486E-04 -0.6482124865E-03
O  -0.1110547894E-03 -0.1575471232E-03 -0.6158129969E-04
H   0.9111591510E-03 -0.4242416895E-03  0.7609829088E-03
H  -0.8186364557E-03  0.7644772340E-03 -0.6035277728E-03
O   0.1848938158E-03 -0.1066441163E-03  0.2418148879E-04
H  -0.1973756875E-03 -0.9617602117E-03  0.7335325309E-03
H   0.5083918472E-03  0.9191347873E-03  0.7328811783E-03
O   0.9630122669E-04 -0.7411997301E-04  0.1125552503E-03
H   0.6042978369E-03  0.6810796495E-03  0.4463389807E-03
H   0.4667418223E-03 -0.3425444088E-03 -0.5753659521E-03
O   0.2043830629E-03 -0.9080739777E-04  0.1026935696E-03
H   0.3574606929E-03  0.6872393348E-03  0.1041049640E-03
H   0.1784117860E-03 -0.2871163656E-03 -0.5662129009E-03
O  -0.2284526439E-03 -0.2426439972E-03  0.1080449378E-03
H  -0.5938356102E-03  0.7807752650E-03  0.1314190668E-02
H  -0.9054352252E-04  0.9889144165E-03 -0.8616935805E-03
O  -0.3676403162E-03  0.3617444404E-03 -0.3804100622E-03
H  -0.4111687997E-03  0.2312896327E-04 -0.7402918353E-03
H   0.7243860724E-03  0.7724973412E-03 -0.4425291170E-03
O  -0.7717720424E-04 -0.1300881225E-03  0.7392704482E-04
H   0.9289018197E-04 -0.1564170087E-02 -0.5025425981E-03
H   0.7192314765E-03 -0.3305278501E-03 -0.4835435458E-06
O  -0.2308046790E-03  0.3006628270E-04 -0.4978306312E-04
H  -0.6843596078E-03 -0.1762547972E-02  0.1292934862E-03
H  -0.1238757741E-02  0.3153822130E-03  0.7675613514E-03
O   0.7100049638E-04  0.2310871939E-04  0.1183480407E-03
H  -0.1162055906E-03  0.2094144308E-02 -0.6991644287E-03
H  -0.5744062660E-03 -0.7000256601E-03  0.2469245037E-03
O   0.1319929159E-04  0.2712876895E-04  0.1694298924E-03
H  -0.5796196998E-03  0.5975099437E-03 -0.2003757796E-02
H   0.6142439495E-03  0.3475216690E-03 -0.3458457979E-04
O  -0.3841179584E-04  0.9020837566E-04  0.1194689890E-03
H   0.6955796853E-03 -0.1389595425E-02 -0.6097562250E-03
H  -0.6418484346E-03  0.3731873749E-03 -0.1263992670E-02
O   0.1728244758E-03 -0.1739110344E-03 -0.3219012526E-04
H  -0.1413756912E-03 -0.7930187289E-03 -0.3751029215E-03
H  -0.7241029915E-03  0.1577623897E-02 -0.2081939709E-03
O   0.1136015038E-03  0.5164553421E-04 -0.8956120278E-04
H   0.1745163510E-03  0.1142915673E-02  0.1096756882E-02
H  -0.6567233343E-03  0.9246785165E-03 -0.7854303102E-03
O  -0.1925497826E-03 -0.2989580843E-03 -0.2365729960E-03
H   0.1105199799E-02  0.3433587511E-03  0.5363984517E-03
H  -0.6202000820E-03  0.1067758806E-02  0.8220533069E-03
O   0.6742705190E-04  0.1921582249E-03 -0.9076137209E-04
H   0.9919498261E-03 -0.1949376790E-02 -0.1360425451E-02
H  -0.7791807607E-03  0.1480454803E-02  0.1273982728E-02
O  -0.6315884529E-04  0.1023107307E-03  0.1750928721E-03
H   0.2017480759E-03 -0.5436066605E-04 -0.5383831829E-03
H  -0.2245832393E-02  0.1756381934E-02 -0.7011672169E-05
O  -0.1123016818E-03  0.2205516736E-03 -0.2886395891E-03
H  -0.1399914754E-02  0.1737324796E-03 -0.1875696326E-03
H   0.8585454575E-03  0.1428081261E-02  0.1139603271E-02
O  -0.1811923974E-03  0.1603135644E-05 -0.7531866604E-04
H   0.5061371684E-03  0.7376271715E-03 -0.1998801224E-02
H  -0.2225926145E-03  0.1579312665E-03  0.5894728370E-03
O  -0.1129867773E-03  0.1095639202E-03 -0.1497430889E-03
H   0.6074773171E-03 -0.2672784573E-03  0.9820785650E-03
H  -0.1716101919E-03 -0.2381914322E-03 -0.1087003389E-03
O  -0.8374737037E-04  0.3824381624E-04 -0.1318038631E-03
H   0.1685141567E-03  0.3042713395E-03 -0.7085734593E-03
H   0.4742406689E-03  0.4318393672E-03  0.9282737005E-03
O   0.2221721109E-03  0.2018223297E-03 -0.3087734630E-04
H   0.1012321399E-02  0.4647088277E-03  0.1366649974E-02
H  -0.8183108339E-03 -0.2616014867E-03  0.1067964810E-03
O   0.1637828169E-04 -0.3814342857E-04 -0.5958758538E-04
H  -0.7434327887E-04  0.1405505188E-02 -0.2800254098E-03
H  -0.1873044078E-02  0.8882619876E-03 -0.1937524161E-03
         159
 Time step:           4
O   0.2488727630E-03 -0.2281488820E-03  0.2471977959E-03
H  -0.3350242599E-03 -0.3400443762E-03  0.1381872871E-03
H   0.8354937706E-04  0.1042314766E-03  0.6259487090E-03
O  -0.1174992688E-04  0.3036293140E-05  0.5674565933E-05
H   0.3134995002E-03  0.1771337754E-03 -0.7358796471E-04
H   0.3078160443E-03 -0.1334553645E-03  0.1500291889E-04
O  -0.1964702237E-03  0.2674160283E-03  0.5037731600E-03
H  -0.3872463994E-03  0.7888593854E-03 -0.1283441812E-02
H   0.3746008797E-03 -0.1598249094E-02  0.4193073985E-03
O   0.3628421969E-05 -0.6150819588E-04  0.4439865892E-04
H   0.1408903854E-03 -0.6194867812E-03  0.3940174549E-03
H  -0.1324455868E-02  0.2746970723E-03  0.7803258009E-03
O   0.4761604434E-04  0.1754199240E-03 -0.6296433182E-04
H  -0.6132310761E-03  0.1027454397E-02  0.4370814306E-03
H   0.9979116536E-03 -0.6110433984E-03  0.5069639461E-03
O   0.2504047087E-03 -0.5369758050E-04 -0.8753438818E-04
H  -0.1035635819E-02  0.9775305150E-03  0.8070556182E-03
H  -0.1079090429E-02 -0.7573033105E-03 -0.4121315447E-04
O  -0.2070964643E-03 -0.1515122452E-03 -0.8677703358E-04
H  -0.5021609683E-03 -0.2091351796E-03 -0.1210078795E-02
H  -0.1558674998E-03 -0.6510343376E-03  0.1176148027E-03
O   0.9282255856E-04 -0.2813650403E-03 -0.8902451493E-05
H  -0.7727934510E-03 -0.1388606834E-02 -0.9048839608E-03
H   0.4987994846E-04  0.5348596333E-03  0.1032771558E-02
O  -0.9131984193E-04  0.7653412035E-04  0.8662079182E-04
H   0.1027037881E-02 -0.4293711504E-03  0.6038722054E-03
H  -0.7980897876E-03 -0.7812404109E-03 -0.1336170355E-02
O  -0.8152722387E-04  0.3474149474E-04 -0.2351507576E-03
H   0.4979622852E-04 -0.1625691970E-02 -0.4245358451E-03
H  -0.6379185620E-03 -0.1018506786E-02  0.5327894508E-03
O  -0.1498583825E-03 -0.2313782226E-03 -0.1313643214E-03
H   0.8079474958E-03  0.5936377840E-03  0.4225264993E-03
H   0.1600490770E-03 -0.3358358987E-03 -0.1222206080E-02
O  -0.4393178524E-04  0.8350884234E-04 -0.6216597017E-04
H  -0.1222942492E-02 -0.6721487139E-03  0.5605772481E-03
H   0.7686965187E-03  0.1328168851E-03  0.1353394008E-02
O   0.9728352837E-04 -0.1749069291E-03 -0.1439716992E-03
H   0.6557610149E-03 -0.8338094047E-03  0.1328800051E-02
H  -0.1604428648E-02 -0.2451073260E-03 -0.1945046990E-02
O  -0.1097318646E-03  0.1477611632E-03 -0.7846493474E-04
H   0.7634448238E-03 -0.7904285069E-04  0.8208252387E-03
H  -0.2883941915E-03 -0.1030299785E-02  0.9706399740E-03
O   0.5846910661E-04 -0.1728772547E-03 -0.2853029801E-04
H   0.6931201683E-03 -0.3105774912E-04  0.1112056246E-02
H  -0.8382485565E-03  0.8079880871E-03 -0.1290643246E-03
O  -0.1182391981E-03 -0.8289213965E-04 -0.1893385726E-04