159
Time step: 1
O   0.2641089284E-03 -0.2496757264E-03  0.2676449037E-03
H  -0.2431690420E-03 -0.2944410694E-03  0.2118035965E-03
H   0.3212746654E-04  0.1274751688E-03  0.6325872569E-03
O  -0.6262167303E-05  0.4043781372E-05  0.1466007096E-04
H   0.5882962044E-03  0.9795411305E-04  0.3627218901E-05
H   0.5789566777E-03 -0.1125402602E-03 -0.1787075874E-03
O  -0.1142861630E-03  0.1813650336E-03  0.2137579965E-03
H   0.9733561475E-05  0.2994256212E-03 -0.2249132996E-03
H   0.3340110431E-03 -0.1156248065E-02  0.7823761976E-03
O  -0.5246674246E-04 -0.1613694759E-04  0.1055118259E-03
H   0.3188904106E-04 -0.4963203747E-03 -0.1616263677E-03
H  -0.7359443223E-03 -0.2150256197E-03 -0.3560302546E-04
O   0.1325576088E-03  0.2555251303E-03 -0.2017666939E-04
H  -0.2294575352E-03  0.1200157157E-02  0.3384209880E-03
H   0.6640463515E-03 -0.3088976627E-03 -0.2582879786E-03
O   0.2116138356E-03 -0.2805068596E-04 -0.1379209013E-03
H  -0.1164221381E-02 -0.4621460684E-04  0.7205639689E-03
H  -0.2669276914E-03 -0.2724457105E-03  0.8216117177E-03
O  -0.3555264917E-03 -0.1211905521E-03 -0.2903730413E-04
H   0.4553375714E-03 -0.1333003239E-02 -0.1048585520E-02
H   0.4072051911E-03 -0.6699547290E-03 -0.1558339396E-02
O   0.5516121443E-04 -0.2465187920E-03 -0.7674110924E-04
H  -0.6657594091E-03 -0.1291539271E-02  0.9722603525E-04
H   0.6735316451E-03 -0.6287589812E-03  0.1075814612E-02
O  -0.3329216262E-04  0.1001872252E-04  0.6320449933E-04
H  -0.4687194052E-03  0.1991601681E-03  0.6222561633E-03
H  -0.3078271386E-03 -0.4181021085E-03 -0.9560107437E-03
O  -0.6800792243E-04 -0.1543442582E-04 -0.2096724434E-03
H  -0.4081226893E-03 -0.1127836666E-02  0.4933612976E-03
H  -0.2210258002E-03 -0.5021028586E-03 -0.3792209712E-03
O  -0.2791920108E-03 -0.4440142439E-03 -0.2896031561E-03
H   0.1294874009E-02  0.7370998736E-03  0.6813472614E-03
H   0.5708257375E-03 -0.1202356997E-03 -0.1395809188E-02
O  -0.8048252310E-04  0.6085728431E-04 -0.7990338388E-04
H  -0.7539292140E-03 -0.2053632309E-03  0.1072244094E-02
H   0.5655834989E-03  0.4987932231E-03  0.1359733547E-02
O  -0.8445844128E-05 -0.1128854159E-03 -0.6609604204E-04
H   0.9008771233E-03 -0.9216005848E-03 -0.9293876487E-04
H  -0.3654790140E-03  0.3849895408E-03 -0.6377913021E-03
O  -0.6542340061E-04  0.2480318019E-03 -0.1494793062E-03
H  -0.6692847938E-03 -0.4854430072E-04  0.1582339716E-02
H  -0.3667119000E-03 -0.1823335702E-02  0.1589763115E-02
O   0.9774170673E-04 -0.2597115464E-03 -0.8810133452E-05
H   0.9458944000E-03 -0.1759336162E-03  0.5744073048E-03
H  -0.1125251720E-02  0.8260255935E-03  0.4323189491E-03
O  -0.1019186220E-03 -0.1983824496E-03 -0.1161132581E-03
H  -0.1758665606E-02  0.9331790997E-04  0.1432841235E-02
H   0.4199650760E-03  0.5301770780E-03  0.4928361607E-03
O  -0.1402837570E-03  0.1908952585E-03  0.3270342808E-03
H   0.4611687193E-03  0.1218791722E-03 -0.4585169054E-04
H   0.1315249032E-02  0.1743348184E-03 -0.3318171911E-03
O  -0.6146010947E-04 -0.1205976775E-03 -0.1037185440E-03
H   0.9424822997E-03 -0.3004725175E-03 -0.3584033314E-03
H  -0.1175940961E-02  0.1462781181E-02 -0.1653894763E-06
O  -0.3396104772E-03  0.2956563255E-03  0.1722752394E-03
H   0.6760457791E-03 -0.1036554377E-02  0.1507458463E-04
H  -0.6824519599E-03  0.2099978314E-03  0.4165242958E-03
O   0.1652522947E-03  0.1965796340E-03  0.1649082640E-03
H  -0.1474657788E-03  0.4146601946E-03 -0.8516579748E-04
H  -0.1177337699E-03  0.9269736727E-03  0.4621678588E-03
O   0.2971169636E-03 -0.8552887383E-04 -0.3211993099E-04
H  -0.2641715359E-03 -0.3596137948E-03 -0.4804746554E-03
H  -0.2282663296E-02  0.4886043532E-03 -0.1489940343E-02
O   0.1321367233E-04  0.1191186868E-03 -0.2344981429E-03
H   0.1179887618E-02  0.4021685043E-03  0.4244644422E-03
H   0.3363981507E-03 -0.1392571841E-02  0.1055492466E-02
O  -0.8541541189E-04  0.1318229776E-03 -0.1921643312E-03
H   0.4763381719E-03  0.2921395879E-03  0.1650430104E-02
H   0.7431085151E-03  0.7812951216E-03  0.2520012719E-03
O   0.2069461625E-03  0.1892412438E-03 -0.1236830006E-04
H  -0.3160805056E-03 -0.8389051213E-03  0.8000084545E-03
H   0.8702833327E-04  0.6134554609E-03  0.1300150338E-02
O  -0.1037226734E-03 -0.5217965132E-04 -0.2700514808E-03
H   0.1408950781E-03 -0.2070482693E-03  0.7142064805E-03
H  -0.3317741583E-03  0.8099450281E-03  0.2962138959E-03
O   0.8486009052E-04 -0.1880530825E-04  0.9466568201E-04
H  -0.9550067874E-03 -0.8271023965E-03  0.1446649871E-02
H  -0.1014995634E-03 -0.5332180734E-03  0.8077996530E-03
O  -0.2819429631E-03  0.8923052509E-04  0.9523011717E-04
H   0.6995023403E-03 -0.6379245434E-03  0.1507530546E-03
H  -0.4303428194E-03  0.7060552303E-03  0.6419651932E-03
O   0.3347434580E-03  0.2792975080E-04 -0.8566045386E-04
H  -0.3096066777E-03 -0.1893008937E-03  0.2779088655E-03
H   0.1255803472E-03 -0.1127913408E-02 -0.9033581448E-04
O   0.3748669539E-03 -0.3022596716E-03 -0.8987176210E-04
H   0.6672051512E-03 -0.8916927468E-03 -0.5395637245E-03
H   0.2169335108E-03  0.5392603151E-03  0.8635814316E-03
O  -0.1501110758E-04 -0.4344120748E-04  0.2263893046E-03
H  -0.3557822943E-03 -0.8827167363E-03 -0.1214493317E-02
H  -0.2965500773E-03  0.4118411475E-03  0.1809759848E-03
O   0.1002500212E-03  0.2814593118E-03 -0.3887114603E-04
H  -0.5623515183E-03 -0.4068817519E-03 -0.5537158171E-03
H  -0.8436087234E-03 -0.7294390880E-04 -0.9736595631E-03
O  -0.1420237298E-03 -0.1918617997E-03 -0.4578310297E-04
H   0.3907889682E-03 -0.8755722094E-03  0.7533649321E-03
H  -0.6617943431E-03  0.6036633992E-03 -0.1238455696E-02
O   0.1784677285E-03 -0.1277996553E-03  0.8111991765E-04
H   0.7389271855E-03 -0.6821780008E-03  0.4426849396E-03
H   0.4692843554E-03  0.6207732083E-03  0.5674267888E-03
O   0.2363040265E-03 -0.1025194065E-03  0.1996499306E-03
H   0.7831107648E-03  0.3286400952E-03  0.6135718184E-04
H  -0.2328968798E-03 -0.1897506961E-04 -0.4247969703E-03
O   0.3671129805E-03 -0.7826422104E-04  0.1437997526E-03
H   0.1236962454E-02  0.2144843094E-03 -0.2853663090E-03
H  -0.5800886557E-03 -0.7821040001E-03 -0.4324001981E-04
O  -0.1991459542E-03 -0.1774692761E-03  0.9565660504E-04
H  -0.6198964768E-04  0.4196357587E-03  0.9461531606E-03
H  -0.7355885781E-03  0.5006340227E-03 -0.4384823461E-03
O  -0.2985156544E-03  0.2466518786E-03 -0.3348696472E-03
H   0.1256564699E-03  0.6356219858E-03 -0.3547627856E-03
H  -0.3096189857E-05  0.8997282341E-03 -0.3082527343E-03
O  -0.9138764279E-04 -0.1897585947E-03  0.6465184193E-04
H   0.2886907632E-03 -0.2206577939E-02 -0.8964470420E-03
H   0.5518312900E-03 -0.9256450565E-03  0.9345481104E-03
O  -0.2934466059E-03  0.2805926191E-04 -0.6360590340E-04
H  -0.9601285063E-04 -0.1259116390E-02  0.8103950376E-03
H  -0.9289334447E-03 -0.1815050353E-03  0.2663653506E-03
O   0.4738291116E-04  0.1465305866E-04  0.1613833486E-03
H  -0.4134322016E-04  0.2198802191E-02 -0.6871682494E-03
H  -0.1913397707E-03 -0.4203253922E-03 -0.2387977924E-03
O   0.6059228824E-04  0.2525899114E-04  0.1704868146E-03
H  -0.4638048766E-03  0.5923252663E-03 -0.2083078407E-02
H  -0.2546133354E-03  0.5113812496E-03  0.6621059250E-04
O  -0.3250095899E-04  0.9796267077E-04  0.7537937543E-04
H   0.2070530588E-03 -0.1021268750E-02 -0.4053219988E-03
H  -0.2662727035E-03 -0.6983995702E-04 -0.8044757400E-03
O   0.1343364400E-03 -0.1619027902E-03 -0.6629843655E-04
H   0.3675714493E-03 -0.3506461532E-03  0.2246563692E-03
H  -0.6620948404E-03  0.1047280414E-02 -0.1742937791E-03
O   0.6274716788E-04  0.7957849574E-04 -0.7867559921E-04
H   0.3489041967E-03  0.9141420392E-03  0.2409219323E-03
H  -0.5545814064E-04  0.6216234975E-03 -0.1030162023E-03
O  -0.1785288664E-03 -0.2384589972E-03 -0.2481505452E-03
H   0.6194253503E-03  0.3997137160E-03  0.4329970544E-03
H  -0.2815048657E-03  0.1988976050E-03  0.1140756139E-02
O   0.7876975703E-04  0.1110055952E-03 -0.4084460083E-04
H   0.1074031128E-03 -0.9704185608E-03 -0.6572076591E-03
H  -0.5544278091E-03  0.8191428554E-03  0.3185587918E-03
O  -0.8177274324E-04  0.6961758570E-04  0.1099586273E-03
H   0.4379688406E-03 -0.1075179835E-03  0.2216073621E-03
H  -0.9651255140E-03  0.9919348487E-03 -0.6370093340E-03
O  -0.7316473589E-04  0.9611433998E-04 -0.1054926826E-03
H  -0.2169137087E-04  0.4413500558E-03 -0.4915449121E-03
H  -0.7141809509E-04  0.7359173741E-03  0.2718769277E-03
O  -0.2209721205E-03 -0.2355249328E-04 -0.8224348166E-04
H   0.7212219720E-03  0.7507220899E-03 -0.1066843508E-02
H   0.4576262050E-03  0.3612247326E-03  0.3568572839E-04
O  -0.1974584733E-03  0.6558739511E-04 -0.2473668347E-03
H   0.6821962019E-03 -0.2525649229E-04  0.7095364701E-03
H   0.5411390110E-03  0.7981649522E-03  0.1092133165E-02
O  -0.8520097402E-04  0.1032244691E-03 -0.2459094693E-03
H  -0.1806192652E-03 -0.1096294670E-03 -0.3272345880E-04
H   0.4316742396E-03  0.6162959890E-03  0.9374849631E-03
O   0.2938154626E-03  0.2813899652E-03 -0.1756268966E-04
H   0.1208302082E-02  0.8915845416E-03  0.1493756642E-02
H  -0.4022694396E-03 -0.3983991173E-03  0.1778803229E-03
O   0.5300204037E-04 -0.1267402909E-04 -0.3053048369E-04
H  -0.7476989485E-03  0.1121763316E-02 -0.1019001099E-02
H  -0.2051954195E-02  0.1117165386E-02 -0.1818873197E-03
159
Time step: 2
O   0.2528927299E-03 -0.2371639963E-03  0.2545353204E-03
H  -0.2739672953E-03 -0.3006838350E-03  0.1757767868E-03
H   0.5629958487E-04  0.1223480230E-03  0.6227753484E-03
O  -0.7713809487E-05  0.3557479520E-05  0.1101673956E-04
H   0.4639156057E-03  0.1221470689E-03 -0.2813235956E-04
H   0.4563126485E-03 -0.1149099672E-03 -0.1005815581E-03
O  -0.1405647601E-03  0.2057917099E-03  0.2983479286E-03
H  -0.7793341212E-04  0.4660469341E-03 -0.5458054956E-03
H   0.3578018052E-03 -0.1297369329E-02  0.6947292052E-03
O  -0.2795476049E-04 -0.2228548249E-04  0.7514145470E-04
H   0.6720441943E-04 -0.4636696977E-03 -0.1397747950E-04
H  -0.8347352783E-03 -0.9627848482E-04  0.1861028055E-03
O   0.1018509019E-03  0.2275205051E-03 -0.4259389391E-04
H  -0.4469172063E-03  0.1198905175E-02  0.4154520939E-03
H   0.8587418760E-03 -0.4694923535E-03  0.9265370584E-04
O   0.2248548847E-03 -0.3856165772E-04 -0.1185548937E-03
H  -0.1123751925E-02  0.3431639717E-03  0.7493177893E-03
H  -0.5680150503E-03 -0.4446261038E-03  0.5052345822E-03
O  -0.3509115576E-03 -0.1493771580E-03 -0.5331723966E-04
H   0.1455413639E-03 -0.1090386482E-02 -0.1292450928E-02
H   0.2614875120E-03 -0.7774649792E-03 -0.1139737740E-02
O   0.7421488357E-04 -0.2789832728E-03 -0.5601833797E-04
H  -0.7693048147E-03 -0.1474853600E-02 -0.3265585391E-03
H   0.4962884707E-03 -0.2365629546E-03  0.1177490267E-02
O  -0.4413617739E-04  0.3218776228E-04  0.6849214214E-04
H   0.4521566015E-04 -0.1577746894E-04  0.5568894861E-03
H  -0.4865010007E-03 -0.5390062013E-03 -0.1053081630E-02
O  -0.6783334923E-04  0.5609695564E-05 -0.2056128579E-03
H  -0.2340532844E-03 -0.1245313214E-02  0.1786233140E-03
H  -0.3423172297E-03 -0.6654664764E-03 -0.5160396521E-04
O  -0.2828382500E-03 -0.4427042628E-03 -0.2676744997E-03
H   0.1447669977E-02  0.9821322052E-03  0.6835329264E-03
H   0.4951972234E-03 -0.2769752414E-03 -0.1681488811E-02
O  -0.6622934970E-04  0.7358533713E-04 -0.7863651615E-04
H  -0.9649860609E-03 -0.4082721990E-03  0.8690199209E-03
H   0.6890071203E-03  0.3123689277E-03  0.1431560678E-02
O   0.2457260145E-04 -0.1272335529E-03 -0.8532138578E-04
H   0.8426968878E-03 -0.9019749986E-03  0.3200008780E-03
H  -0.7826880616E-03  0.1537235175E-03 -0.1068647751E-02
O  -0.8513916073E-04  0.2392248319E-03 -0.1350704743E-03
H  -0.1394330379E-03 -0.6997914597E-04  0.1416651171E-02
H  -0.4220220657E-03 -0.1823252901E-02  0.1493601679E-02
O   0.8294433590E-04 -0.2324228023E-03 -0.1963302862E-04
H   0.8662431760E-03 -0.9207250962E-04  0.8784282519E-03
H  -0.1046959094E-02  0.9006835370E-03  0.1728044665E-03
O  -0.1297708306E-03 -0.1873875152E-03 -0.9326486365E-04
H  -0.1658817002E-02 -0.4186332509E-03  0.1220923707E-02
H   0.6833272646E-03  0.8344437694E-03  0.3605476922E-03
O  -0.1141261212E-03  0.1237919386E-03  0.2574107937E-03
H   0.5054631556E-03  0.3486117044E-03  0.2194453090E-03
H   0.9693305151E-03  0.2803625800E-03 -0.5674094898E-03
O  -0.4259643212E-04 -0.1083383923E-03 -0.1070525941E-03
H   0.9208151597E-03 -0.1064852854E-03  0.1565789625E-04
H  -0.1250306569E-02  0.1169218530E-02  0.5624453412E-04
O  -0.3527587586E-03  0.3496375060E-03  0.1871701805E-03
H   0.5309619532E-03 -0.1249327327E-02  0.5050177195E-03
H  -0.9720076183E-03  0.4591410436E-04  0.5743467456E-04
O   0.1616231611E-03  0.2511999679E-03  0.1999635451E-03
H  -0.2756520334E-03 -0.1046927023E-03 -0.2884702052E-04
H   0.3987732483E-03  0.1187350646E-02  0.2436218666E-03
O   0.2149395396E-03 -0.4263496778E-04 -0.2236087679E-04
H  -0.3619395743E-03 -0.6004062746E-03 -0.1744232590E-03
H  -0.1574849518E-02  0.4343541776E-03 -0.1152991752E-02
O  -0.1302364010E-04  0.8434534374E-04 -0.1891032374E-03
H   0.1176070897E-02  0.3258336894E-03 -0.8354230917E-04
H   0.4718371380E-03 -0.9122756319E-03  0.1160429905E-02
O  -0.1124190783E-03  0.1521757491E-03 -0.2362944376E-03
H   0.5693905213E-03 -0.1924136389E-05  0.2021849896E-02
H   0.1085239859E-02  0.1271006126E-02  0.4273405182E-03
O   0.1451590811E-03  0.1475773508E-03  0.4684361321E-05
H  -0.9126088930E-04 -0.4683219479E-03  0.1564496130E-03
H   0.3715298194E-03  0.4837445695E-03  0.1359195710E-02
O  -0.1269185562E-03 -0.4083044731E-04 -0.3555008363E-03
H   0.4093634837E-03 -0.6306875995E-03  0.7534953452E-03
H  -0.6431990550E-03  0.1004626177E-02  0.8452928086E-03
O   0.7604592186E-04 -0.4118835524E-04  0.7239587099E-04
H  -0.9140152574E-03 -0.8578248825E-03  0.1496183330E-02
H  -0.1407599073E-04 -0.1899420743E-04  0.7793446956E-03
O  -0.3028887197E-03  0.6833143236E-04  0.1119931792E-03
H   0.9352462016E-03 -0.5928882603E-03 -0.1997081551E-03
H  -0.5148314918E-03  0.1056710830E-02  0.8579885100E-03
O   0.4878871205E-03  0.3293516421E-04 -0.1387183134E-03
H  -0.4142630192E-03 -0.2786168660E-04  0.8462431060E-03
H  -0.1623096975E-03 -0.1720630985E-02 -0.2416782224E-03
O   0.3920524911E-03 -0.3015388718E-03 -0.9270614913E-04
H   0.7891364398E-03 -0.9496163803E-03 -0.9895741286E-03
H   0.4439129787E-03  0.1186910849E-03  0.1248481599E-02
O  -0.2509189344E-04 -0.7231015107E-04  0.2639236734E-03
H  -0.4267256105E-03 -0.1093067522E-02 -0.1589158302E-02
H  -0.1700402821E-03  0.9549840222E-03  0.2200868438E-03
O   0.9276932402E-04  0.2532062515E-03 -0.1825797933E-04
H  -0.2754510882E-03 -0.5662225875E-03 -0.6919568592E-03
H  -0.1023193766E-02 -0.2368557578E-04 -0.8626595271E-03
O  -0.1180691208E-03 -0.1634315991E-03 -0.5213427797E-04
H   0.6724857790E-03 -0.5812598626E-03  0.7250745761E-03
H  -0.7200265305E-03  0.6650827701E-03 -0.8311047556E-03
O   0.1815472548E-03 -0.1177504203E-03  0.4889756204E-04
H   0.2285170326E-03 -0.8372527310E-03  0.6027947553E-03
H   0.4973890126E-03  0.8095861471E-03  0.6741594064E-03
O   0.1497639899E-03 -0.8369134235E-04  0.1433180535E-03
H   0.6610352307E-03  0.5200938640E-03  0.2791366377E-03
H   0.1567381665E-03 -0.1933508331E-03 -0.4905319730E-03
O   0.2690059365E-03 -0.8340980244E-04  0.1176898122E-03
H   0.7253731666E-03  0.4743273815E-03 -0.6524069400E-04
H  -0.1553657909E-03 -0.4939178775E-03 -0.3282435745E-03
O  -0.2150692270E-03 -0.2139009316E-03  0.1021412550E-03
H  -0.3433072458E-03  0.6249124996E-03  0.1149864739E-02
H  -0.4059917962E-03  0.7663759330E-03 -0.6633550843E-03
O  -0.3646736160E-03  0.3300542106E-03 -0.3907282756E-03
H  -0.1418105893E-03  0.3794920003E-03 -0.5890792767E-03
H   0.3927768030E-03  0.9206976855E-03 -0.4088692773E-03
O  -0.9133452598E-04 -0.1672923402E-03  0.7734685347E-04
H   0.1874670917E-03 -0.2113095308E-02 -0.7606015362E-03
H   0.7116789413E-03 -0.6651472340E-03  0.4631871263E-03
O  -0.2678659193E-03  0.2969028934E-04 -0.5874150407E-04
H  -0.4142474921E-03 -0.1568010647E-02  0.4717443821E-03
H  -0.1132550295E-02  0.8501314221E-04  0.5503254793E-03
O   0.6915989452E-04  0.1631732011E-04  0.1543477588E-03
H  -0.1351332668E-03  0.2445133147E-02 -0.7967270423E-03
H  -0.4365157847E-03 -0.6351070626E-03  0.2561625989E-04
O   0.4141430462E-04  0.2433258663E-04  0.1839915617E-03
H  -0.6020285298E-03  0.6667482665E-03 -0.2239110074E-02
H   0.2006448127E-03  0.4479373508E-03  0.1105984834E-04
O  -0.3595265348E-04  0.9211578077E-04  0.9845413895E-04
H   0.4776688874E-03 -0.1202438616E-02 -0.5190428005E-03
H  -0.4601411547E-03  0.1675767461E-03 -0.1040131530E-02
O   0.1513104411E-03 -0.1686394768E-03 -0.4773377184E-04
H   0.1096180979E-03 -0.5641794072E-03 -0.7582572505E-04
H  -0.6882114538E-03  0.1351796987E-02 -0.1945913168E-03
O   0.8561197561E-04  0.6101573530E-04 -0.8095245758E-04
H   0.2391673564E-03  0.9903991872E-03  0.6686263519E-03
H  -0.3601756559E-03  0.7487938346E-03 -0.4405432763E-03
O  -0.1933903720E-03 -0.2772690629E-03 -0.2497601842E-03
H   0.9268020826E-03  0.3887738248E-03  0.5062588699E-03
H  -0.4650123381E-03  0.6648128094E-03  0.1009861326E-02
O   0.7757937045E-04  0.1629216436E-03 -0.6964405678E-04
H   0.6101588578E-03 -0.1580169759E-02 -0.1098303452E-02
H  -0.7254318561E-03  0.1238367253E-02  0.8547149897E-03
O  -0.8292753789E-04  0.9600806150E-04  0.1578319858E-03
H   0.3836436212E-03 -0.9702255521E-04 -0.1245156741E-03
H  -0.1774564808E-02  0.1528234945E-02 -0.3982353501E-03
O  -0.8211145099E-04  0.1354047693E-03 -0.1679514446E-03
H  -0.5666928968E-03  0.2929816908E-03 -0.3240189605E-03
H   0.3177808670E-03  0.9395685014E-03  0.6008615668E-03
O  -0.2030626484E-03 -0.1148228038E-04 -0.7688254690E-04
H   0.6158494748E-03  0.7480404098E-03 -0.1574007848E-02
H   0.1356562616E-03  0.2668256831E-03  0.3138496114E-03
O  -0.1380871954E-03  0.8186725396E-04 -0.1789309218E-03
H   0.5898722441E-03 -0.1647106596E-03  0.8123088455E-03
H   0.1461426158E-03  0.2231391801E-03  0.4097358227E-03
O  -0.7906020182E-04  0.6039484707E-04 -0.1697364563E-03
H   0.1426403294E-04  0.1134138334E-03 -0.3808992599E-03
H   0.4428372647E-03  0.4854334381E-03  0.8941400022E-03
O   0.2651135367E-03  0.2487085853E-03 -0.3009290634E-04
H   0.1172239423E-02  0.6629758198E-03  0.1544170278E-02
H  -0.6860487663E-03 -0.3391450295E-03  0.1481951457E-03
O   0.4589841988E-04 -0.3215360788E-04 -0.5316195231E-04
H  -0.4532966864E-03  0.1458942676E-02 -0.7188799491E-03
H  -0.2344522009E-02  0.1170055603E-02 -0.1997902176E-03
