           3
Time step:                   1 Sim. Time [au]          20.00
O    -0.12083406E-02    0.11823639E+00    0.71734804E-03
H     0.76017630E+00   -0.47465119E+00   -0.76389810E-02
H    -0.74208773E+00   -0.47309442E+00   -0.36354902E-02
           3
Time step:                   1 Sim. Time [au]          20.00
O     0.81066265E-04    0.11683388E+00    0.45556731E-03
H     0.76619540E+00   -0.47498813E+00   -0.74345274E-02
H    -0.76835749E+00   -0.45066366E+00    0.31604936E-03
           3
Time step:                   1 Sim. Time [au]          20.00
O    -0.33617659E-03    0.11824762E+00    0.65861979E-04
H     0.76559873E+00   -0.47922395E+00   -0.61359322E-02
H    -0.76111751E+00   -0.46871596E+00    0.52038611E-02
           3
Time step:                   1 Sim. Time [au]          20.00
O     0.84447378E-03    0.11693728E+00   -0.66825672E-04
H     0.75310427E+00   -0.46236242E+00   -0.39391918E-02
H    -0.76722108E+00   -0.46483421E+00    0.51147413E-02
           3
Time step:                   1 Sim. Time [au]          20.00
O     0.23961138E-02    0.11732695E+00    0.14205686E-02
H     0.75213293E+00   -0.46850510E+00   -0.73862003E-02
H    -0.79072639E+00   -0.46489288E+00   -0.14960400E-01
           3
Time step:                   1 Sim. Time [au]          20.00
O    -0.44159779E-03    0.11871503E+00   -0.11987094E-02
H     0.76477007E+00   -0.46553258E+00    0.10228923E-01
H    -0.75880365E+00   -0.48976768E+00    0.88641314E-02
           3
Time step:                   1 Sim. Time [au]          20.00
O    -0.30953355E-03    0.11735821E+00   -0.82965713E-03
H     0.75887887E+00   -0.46505768E+00    0.13038242E-01
H    -0.75499949E+00   -0.46881613E+00    0.19951879E-03
           3
Time step:                   1 Sim. Time [au]          20.00
O     0.97117246E-03    0.11832666E+00   -0.14038556E-02
H     0.74766072E+00   -0.48470516E+00    0.12547246E-01
H    -0.76408768E+00   -0.46447017E+00    0.97915502E-02
           3
Time step:                   1 Sim. Time [au]          20.00
O     0.20812710E-03    0.11722501E+00   -0.41768769E-03
H     0.75505707E+00   -0.46841953E+00    0.78963939E-02
H    -0.75937081E+00   -0.46331688E+00   -0.11991709E-02
           3
Time step:                   1 Sim. Time [au]          20.00
O     0.98705921E-03    0.11883260E+00   -0.90415713E-03
H     0.74534042E+00   -0.47670849E+00    0.91261669E-02
H    -0.76200081E+00   -0.48049599E+00    0.52847877E-02
           3
Time step:                   2 Sim. Time [au]          40.00
O    -0.21631033E-02    0.11821812E+00    0.15646225E-02
H     0.76158891E+00   -0.47500808E+00   -0.15977059E-01
H    -0.73270248E+00   -0.47243399E+00   -0.78969393E-02
           3
Time step:                   2 Sim. Time [au]          40.00
O     0.35523434E-03    0.11515365E+00    0.10548834E-02
H     0.77299385E+00   -0.47452629E+00   -0.15724150E-01
H    -0.78247914E+00   -0.42577594E+00   -0.52555430E-04
           3
Time step:                   2 Sim. Time [au]          40.00
O    -0.38154634E-03    0.11805749E+00    0.29762821E-03
H     0.77200304E+00   -0.48249878E+00   -0.13355199E-01
H    -0.76953680E+00   -0.46252578E+00    0.96043054E-02
           3
Time step:                   2 Sim. Time [au]          40.00
O     0.20870154E-02    0.11536506E+00    0.49687950E-04
H     0.74532370E+00   -0.44835301E+00   -0.91621438E-02
H    -0.78088916E+00   -0.45438710E+00    0.93580339E-02
           3
Time step:                   2 Sim. Time [au]          40.00
O     0.52617523E-02    0.11618668E+00    0.31214830E-02
H     0.74297726E+00   -0.46128444E+00   -0.16471420E-01
H    -0.82771914E+00   -0.45462450E+00   -0.31371813E-01
           3
Time step:                   2 Sim. Time [au]          40.00
O    -0.61526399E-03    0.11902692E+00   -0.21105262E-02
H     0.76897680E+00   -0.45523962E+00    0.18544304E-01
H    -0.76426065E+00   -0.50468133E+00    0.15603059E-01
           3
Time step:                   2 Sim. Time [au]          40.00
O    -0.32983264E-03    0.11627270E+00   -0.13576693E-02
H     0.75702063E+00   -0.45450635E+00    0.23937526E-01
H    -0.75675817E+00   -0.46260483E+00   -0.17150861E-02
           3
Time step:                   2 Sim. Time [au]          40.00
O     0.21790556E-02    0.11830934E+00   -0.24910686E-02
H     0.73541394E+00   -0.49463188E+00    0.22555371E-01
H    -0.77481048E+00   -0.45420937E+00    0.17561023E-01
           3
Time step:                   2 Sim. Time [au]          40.00
O     0.75617063E-03    0.11611593E+00   -0.53750770E-03
H     0.74967477E+00   -0.46186452E+00    0.13271249E-01
H    -0.76646215E+00   -0.45254684E+00   -0.40732687E-02
           3
Time step:                   2 Sim. Time [au]          40.00
O     0.23170900E-02    0.11931695E+00   -0.15008972E-02
H     0.73087447E+00   -0.47848583E+00    0.15488065E-01
H    -0.77230481E+00   -0.48636476E+00    0.89468611E-02
