           3
Time step:                   1 Sim. Time [au]          20.00
O     0.20333812E-03    0.12147687E+00    0.13849217E-02
H     0.76037673E+00   -0.47469565E+00   -0.40897444E-02
H    -0.78504568E+00   -0.48711000E+00    0.11818299E-01
           3
Time step:                   1 Sim. Time [au]          20.00
O     0.20223819E-03    0.12141737E+00    0.13951161E-02
H     0.76007311E+00   -0.47431235E+00   -0.41197348E-02
H    -0.78458220E+00   -0.48668275E+00    0.11908065E-01
           3
Time step:                   1 Sim. Time [au]          20.00
O     0.20113825E-03    0.12136859E+00    0.14053105E-02
H     0.75982919E+00   -0.47401421E+00   -0.41497252E-02
H    -0.78417842E+00   -0.48634066E+00    0.11997831E-01
           3
Time step:                   1 Sim. Time [au]          20.00
O     0.20003832E-03    0.12132982E+00    0.14155049E-02
H     0.75965468E+00   -0.47379551E+00   -0.41797157E-02
H    -0.78384405E+00   -0.48607801E+00    0.12087597E-01
           3
Time step:                   1 Sim. Time [au]          20.00
O     0.19893839E-03    0.12130225E+00    0.14256993E-02
H     0.75954075E+00   -0.47366569E+00   -0.42097061E-02
H    -0.78357026E+00   -0.48590424E+00    0.12177363E-01
           3
Time step:                   1 Sim. Time [au]          20.00
O     0.19783845E-03    0.12128462E+00    0.14358937E-02
H     0.75949513E+00   -0.47361471E+00   -0.42396966E-02
H    -0.78336477E+00   -0.48580932E+00    0.12267129E-01
           3
Time step:                   1 Sim. Time [au]          20.00
O     0.19673852E-03    0.12127759E+00    0.14460881E-02
H     0.75950921E+00   -0.47364786E+00   -0.42696870E-02
H    -0.78321900E+00   -0.48579852E+00    0.12356895E-01
           3
Time step:                   1 Sim. Time [au]          20.00
O     0.19563859E-03    0.12128094E+00    0.14562825E-02
H     0.75957668E+00   -0.47376348E+00   -0.42996775E-02
H    -0.78312660E+00   -0.48587019E+00    0.12446661E-01
           3
Time step:                   1 Sim. Time [au]          20.00
O     0.19453865E-03    0.12129490E+00    0.14664769E-02
H     0.75970285E+00   -0.47396319E+00   -0.43296679E-02
H    -0.78309292E+00   -0.48602595E+00    0.12536427E-01
           3
Time step:                   1 Sim. Time [au]          20.00
O    -0.32702920E-04    0.11666224E+00    0.15720702E-03
H     0.75550964E+00   -0.47014297E+00   -0.47737317E-03
H    -0.73968487E+00   -0.46536508E+00    0.10234626E-02
           3
Time step:                   2 Sim. Time [au]          40.00
O     0.27505377E-03    0.12273880E+00    0.29652520E-02
H     0.76161772E+00   -0.47481006E+00   -0.88415828E-02
H    -0.79180539E+00   -0.49121728E+00    0.23192706E-01
           3
Time step:                   2 Sim. Time [au]          40.00
O     0.21687768E-03    0.12244322E+00    0.30058952E-02
H     0.76021680E+00   -0.47311214E+00   -0.89534722E-02
H    -0.78909637E+00   -0.48871671E+00    0.23515626E-01
           3
Time step:                   2 Sim. Time [au]          40.00
O     0.17059637E-03    0.12220690E+00    0.30462818E-02
H     0.75909317E+00   -0.47180513E+00   -0.90663246E-02
H    -0.78685343E+00   -0.48676611E+00    0.23843583E-01
           3
Time step:                   2 Sim. Time [au]          40.00
O     0.13835575E-03    0.12202367E+00    0.30863990E-02
H     0.75831446E+00   -0.47084589E+00   -0.91801713E-02
H    -0.78517825E+00   -0.48531018E+00    0.24176811E-01
           3
Time step:                   2 Sim. Time [au]          40.00
O     0.11801780E-03    0.12190215E+00    0.31262366E-02
H     0.75781068E+00   -0.47029449E+00   -0.92950381E-02
H    -0.78396694E+00   -0.48442590E+00    0.24515497E-01
           3
Time step:                   2 Sim. Time [au]          40.00
O     0.11108573E-03    0.12183271E+00    0.31658105E-02
H     0.75763381E+00   -0.47008394E+00   -0.94108591E-02
H    -0.78329530E+00   -0.48402744E+00    0.24859321E-01
           3
Time step:                   2 Sim. Time [au]          40.00
O     0.11603639E-03    0.12182060E+00    0.32051294E-02
H     0.75772945E+00   -0.47025075E+00   -0.95276016E-02
H    -0.78308476E+00   -0.48416138E+00    0.25208115E-01
           3
Time step:                   2 Sim. Time [au]          40.00
O     0.13141402E-03    0.12186372E+00    0.32441517E-02
H     0.75805384E+00   -0.47078114E+00   -0.96454197E-02
H    -0.78326847E+00   -0.48480857E+00    0.25562692E-01
           3
Time step:                   2 Sim. Time [au]          40.00
O     0.15796304E-03    0.12196402E+00    0.32829379E-02
H     0.75863875E+00   -0.47168884E+00   -0.97641009E-02
H    -0.78388999E+00   -0.48598580E+00    0.25921880E-01
           3
Time step:                   2 Sim. Time [au]          40.00
O    -0.24719496E-03    0.11310697E+00    0.64327120E-03
H     0.75092266E+00   -0.46488348E+00   -0.20011055E-02
H    -0.70362265E+00   -0.44723383E+00    0.28086460E-02
