           3
 Time step:           1
O  -0.1208340554E-02  0.1184048246E+00  0.7173480392E-03
H   0.7624267226E+00 -0.4759740892E+00 -0.7638981014E-02
H  -0.7439616008E+00 -0.4744287955E+00 -0.3635490153E-02
           3
 Time step:           1
O   0.8106626465E-04  0.1170986460E+00  0.4555673054E-03
H   0.7696071663E+00 -0.4770733556E+00 -0.7434527356E-02
H  -0.7713847725E+00 -0.4527572634E+00  0.3160493572E-03
           3
 Time step:           1
O  -0.3361765879E-03  0.1185866658E+00  0.6586197883E-04
H   0.7699257269E+00 -0.4818962466E+00 -0.6135932249E-02
H  -0.7650562710E+00 -0.4713978252E+00  0.5203861135E-02
           3
 Time step:           1
O   0.8444737762E-03  0.1173299985E+00 -0.6682567161E-04
H   0.7580620264E+00 -0.4654601760E+00 -0.3939191793E-02
H  -0.7717828999E+00 -0.4679386374E+00  0.5114741331E-02
           3
 Time step:           1
O   0.2396113820E-02  0.1177502946E+00  0.1420568555E-02
H   0.7574702454E+00 -0.4718448468E+00 -0.7386200263E-02
H  -0.7956638921E+00 -0.4682369609E+00 -0.1496039996E-01
           3
 Time step:           1
O  -0.4415977911E-03  0.1191485826E+00 -0.1198709357E-02
H   0.7702083310E+00 -0.4689514585E+00  0.1022892338E-01
H  -0.7638637056E+00 -0.4931962969E+00  0.8864131375E-02
           3
 Time step:           1
O  -0.3095335512E-03  0.1177801724E+00 -0.8296571312E-03
H   0.7641702492E+00 -0.4683824987E+00  0.1303824191E-01
H  -0.7599124266E+00 -0.4721581265E+00  0.1995187884E-03
           3
 Time step:           1
O   0.9711724593E-03  0.1187156171E+00 -0.1403855606E-02
H   0.7525871075E+00 -0.4877728808E+00  0.1254724551E-01
H  -0.7686332942E+00 -0.4675495163E+00  0.9791550157E-02
           3
 Time step:           1
O   0.2081270972E-03  0.1175591729E+00 -0.4176876923E-03
H   0.7593757872E+00 -0.4710571517E+00  0.7896393930E-02
H  -0.7633079896E+00 -0.4659602702E+00 -0.1199170897E-02
           3
 Time step:           1
O   0.9870592059E-03  0.1190954732E+00 -0.9041571286E-03
H   0.7487762727E+00 -0.4787808331E+00  0.9126166931E-02
H  -0.7650515318E+00 -0.4825784048E+00  0.5284787682E-02
           3
 Time step:           2
O  -0.2161447975E-02  0.1187596537E+00  0.1563234889E-02
H   0.7695823523E+00 -0.4792241058E+00 -0.1596559812E-01
H  -0.7385163698E+00 -0.4767084086E+00 -0.7887479906E-02
           3
 Time step:           2
O   0.3581581018E-03  0.1160614256E+00  0.1053317176E-02
H   0.7854085177E+00 -0.4816298583E+00 -0.1571427415E-01
H  -0.7926474237E+00 -0.4328865993E+00 -0.3871235979E-04
           3
 Time step:           2
O  -0.3779186021E-03  0.1192455863E+00  0.2956347691E-03
H   0.7879094896E+00 -0.4917990922E+00 -0.1334256555E-01
H  -0.7831638087E+00 -0.4718465977E+00  0.9622134710E-02
           3
 Time step:           2
O   0.2090833503E-02  0.1167560778E+00  0.4723391625E-04
H   0.7635793698E+00 -0.4592605009E+00 -0.9142944689E-02
H  -0.7967763908E+00 -0.4652760191E+00  0.9376573196E-02
           3
 Time step:           2
O   0.5265246425E-02  0.1176901566E+00  0.3118608288E-02
H   0.7626398174E+00 -0.4730768230E+00 -0.1644303467E-01
H  -0.8449648459E+00 -0.4663633656E+00 -0.3135568257E-01
           3
 Time step:           2
O  -0.6120272148E-03  0.1205695763E+00 -0.2114572484E-02
H   0.7889733437E+00 -0.4673143987E+00  0.1858555976E-01
H  -0.7820785424E+00 -0.5167772495E+00  0.1562472228E-01
           3
 Time step:           2
O  -0.3263219102E-03  0.1177704631E+00 -0.1362219907E-02
H   0.7764140468E+00 -0.4661999947E+00  0.2398595728E-01
H  -0.7739733167E+00 -0.4744102823E+00 -0.1692624399E-02
           3
 Time step:           2
O   0.2182825313E-02  0.1196813862E+00 -0.2495649486E-02
H   0.7534625260E+00 -0.5053870079E+00  0.2260325095E-01
H  -0.7906578476E+00 -0.4650063614E+00  0.1758448787E-01
           3
 Time step:           2
O   0.7595493365E-03  0.1172776911E+00 -0.5413517099E-03
H   0.7655003632E+00 -0.4710057308E+00  0.1331177677E-01
H  -0.7800718600E+00 -0.4616658464E+00 -0.4054117784E-02
           3
 Time step:           2
O   0.2319766087E-02  0.1202158015E+00 -0.1503724245E-02
H   0.7433941002E+00 -0.4855426557E+00  0.1551601187E-01
H  -0.7825540295E+00 -0.4934535036E+00  0.8962432350E-02
           3
 Time step:           3
O  -0.2982256641E-02  0.1189855059E+00  0.2586782923E-02
H   0.7771579026E+00 -0.4814434365E+00 -0.2468762879E-01
H  -0.7365481535E+00 -0.4779714859E+00 -0.1295085016E-01
           3
 Time step:           3
O   0.6699632315E-03  0.1147396172E+00  0.1836281289E-02
H   0.8028254602E+00 -0.4850047953E+00 -0.2448051846E-01
H  -0.8150022588E+00 -0.4121664542E+00 -0.1238325703E-02
           3
 Time step:           3
O  -0.3394021607E-03  0.1198190416E+00  0.7259859373E-03
H   0.8092169683E+00 -0.5008455100E+00 -0.2119255543E-01
H  -0.8042132947E+00 -0.4716682901E+00  0.1310380307E-01
           3
 Time step:           3
O   0.3501900445E-02  0.1160946568E+00  0.3727172809E-03
H   0.7715278754E+00 -0.4527370794E+00 -0.1511753732E-01
H  -0.8232995238E+00 -0.4620163234E+00  0.1265964875E-01
           3
 Time step:           3
O   0.8339052723E-02  0.1176197634E+00  0.5120237573E-02
H   0.7703966949E+00 -0.4749842279E+00 -0.2662024906E-01
H  -0.8948357955E+00 -0.4641734385E+00 -0.4870522338E-01
           3
 Time step:           3
O  -0.7307125493E-03  0.1220552791E+00 -0.2708885671E-02
H   0.8109235290E+00 -0.4663221139E+00  0.2542111817E-01
H  -0.8045720563E+00 -0.5396462684E+00  0.2007375212E-01
           3
 Time step:           3
O  -0.2597472025E-03  0.1177683537E+00 -0.1561164982E-02
H   0.7913881109E+00 -0.4647181957E+00  0.3321118116E-01
H  -0.7922216985E+00 -0.4765079478E+00 -0.5833691129E-02
           3
 Time step:           3
O   0.3441283975E-02  0.1207136104E+00 -0.3241408591E-02
H   0.7574673077E+00 -0.5237318388E+00  0.3054806474E-01
H  -0.8164013430E+00 -0.4623422835E+00  0.2319303993E-01
           3
 Time step:           3
O   0.1473463320E-02  0.1169959254E+00 -0.3402265304E-03
H   0.7735420372E+00 -0.4711952710E+00  0.1665692489E-01
H  -0.8011006552E+00 -0.4574168618E+00 -0.8663705999E-02
           3
 Time step:           3
O   0.3833451371E-02  0.1212381543E+00 -0.1771079945E-02
H   0.7394596935E+00 -0.4918175639E+00  0.1959341171E-01
H  -0.8038398808E+00 -0.5031788540E+00  0.1094570926E-01
           3
 Time step:           4
O  -0.3775572926E-02  0.1190795407E+00  0.3827303980E-02
H   0.7840016156E+00 -0.4829176583E+00 -0.3346918084E-01
H  -0.7351846627E+00 -0.4779754200E+00 -0.1894323341E-01
           3
 Time step:           4
O   0.8682608770E-03  0.1130512060E+00  0.2837523494E-02
H   0.8203353172E+00 -0.4870539974E+00 -0.3332330623E-01
H  -0.8344707166E+00 -0.3910634540E+00 -0.3414144961E-02
           3
 Time step:           4
O  -0.4265567008E-03  0.1202147592E+00  0.1383595790E-02
H   0.8320575604E+00 -0.5086543100E+00 -0.2920248847E-01
H  -0.8229912789E+00 -0.4696901533E+00  0.1550652128E-01
           3
 Time step:           4
O   0.4851845703E-02  0.1152226732E+00  0.9302907468E-03
H   0.7798170611E+00 -0.4456656154E+00 -0.2131209793E-01
H  -0.8448713873E+00 -0.4566165703E+00  0.1481444486E-01
           3
 Time step:           4
O   0.1135886660E-01  0.1173970339E+00  0.7441946861E-02
H   0.7785213270E+00 -0.4772434166E+00 -0.3731195368E-01
H  -0.9377750434E+00 -0.4598788781E+00 -0.6657216463E-01
           3
 Time step:           4
O  -0.1001119222E-02  0.1234530260E+00 -0.2951286770E-02
H   0.8335730930E+00 -0.4655771266E+00  0.3115781106E-01
H  -0.8252778791E+00 -0.5591745829E+00  0.2211359963E-01
           3
 Time step:           4
O  -0.3019707123E-03  0.1176270406E+00 -0.1397743349E-02
H   0.8066613984E+00 -0.4635702937E+00  0.4115961980E-01
H  -0.8087436224E+00 -0.4766287565E+00 -0.1227773058E-01
           3
 Time step:           4
O   0.4568317683E-02  0.1216878964E+00 -0.3614561656E-02
H   0.7623613577E+00 -0.5420877252E+00  0.3684922605E-01
H  -0.8402408777E+00 -0.4579788247E+00  0.2652748439E-01
           3
 Time step:           4
O   0.2181105204E-02  0.1166200199E+00  0.2091666826E-03
H   0.7816287142E+00 -0.4714763727E+00  0.1844085268E-01
H  -0.8212307972E+00 -0.4520124061E+00 -0.1504986259E-01
           3
 Time step:           4
O   0.5376190004E-02  0.1221095245E+00 -0.1686115174E-02
H   0.7356094119E+00 -0.4976814933E+00  0.2189478015E-01
H  -0.8243449959E+00 -0.5108833448E+00  0.1122241557E-01
           3
 Time step:           5
O  -0.4621847183E-02  0.1190423529E+00  0.5300402108E-02
H   0.7894915989E+00 -0.4838493674E+00 -0.4204326491E-01
H  -0.7327444494E+00 -0.4764880610E+00 -0.2583748246E-01
           3
 Time step:           5
O   0.8343375515E-03  0.1109213316E+00  0.4066072759E-02
H   0.8368910173E+00 -0.4875362573E+00 -0.4190063080E-01
H  -0.8489928682E+00 -0.3699894257E+00 -0.6581129497E-02
           3
 Time step:           5
O  -0.8111104587E-03  0.1203545587E+00  0.2270891301E-02
H   0.8550430181E+00 -0.5147653730E+00 -0.3695819382E-01
H  -0.8366205601E+00 -0.4649337861E+00  0.1677649033E-01
           3
 Time step:           5
O   0.5959530348E-02  0.1140339590E+00  0.1716374807E-02
H   0.7868498736E+00 -0.4377051835E+00 -0.2725023460E-01
H  -0.8578479584E+00 -0.4477905441E+00  0.1575256948E-01
           3
 Time step:           5
O   0.1411378163E-01  0.1168985351E+00  0.1007629490E-01
H   0.7852832497E+00 -0.4793812388E+00 -0.4799537333E-01
H  -0.9696109941E+00 -0.4519890100E+00 -0.8453770923E-01
           3
 Time step:           5
O  -0.1576695382E-02  0.1246275341E+00 -0.2834686268E-02
H   0.8549368412E+00 -0.4645272593E+00  0.3615700405E-01
H  -0.8398860731E+00 -0.5731852300E+00  0.2183236837E-01
           3
 Time step:           5
O  -0.5953974089E-03  0.1172162812E+00 -0.8658994711E-03
H   0.8203315020E+00 -0.4622378622E+00  0.4821735686E-01
H  -0.8194106415E+00 -0.4731980816E+00 -0.2090028725E-01
           3
 Time step:           5
O   0.5430345883E-02  0.1224954200E+00 -0.3610740177E-02
H   0.7664130825E+00 -0.5596183960E+00  0.4191834537E-01
H  -0.8582931702E+00 -0.4505549148E+00  0.2766855521E-01
           3
 Time step:           5
O   0.2749659920E-02  0.1160709374E+00  0.1108581878E-02
H   0.7883807900E+00 -0.4716080660E+00  0.1911974041E-01
H  -0.8368935975E+00 -0.4444368692E+00 -0.2308621347E-01
           3
 Time step:           5
O   0.6825309741E-02  0.1227855890E+00 -0.1250278994E-02
H   0.7309616661E+00 -0.5031197675E+00  0.2291008966E-01
H  -0.8410243976E+00 -0.5158124239E+00  0.9922525235E-02
           3
 Time step:           6
O  -0.5581131742E-02  0.1188421552E+00  0.6993231713E-02
H   0.7934635328E+00 -0.4841134522E+00 -0.5027518418E-01
H  -0.7282413720E+00 -0.4730875918E+00 -0.3345364834E-01
           3
 Time step:           6
O   0.4823388821E-03  0.1082578237E+00  0.5502251985E-02
H   0.8518825698E+00 -0.4859241658E+00 -0.5000735188E-01
H  -0.8578079486E+00 -0.3489671154E+00 -0.1061693159E-01
           3
 Time step:           6
O  -0.1620114104E-02  0.1201533148E+00  0.3361373460E-02
H   0.8771786236E+00 -0.5185018475E+00 -0.4418827596E-01
H  -0.8439862819E+00 -0.4565919856E+00  0.1698248765E-01
           3
 Time step:           6
O   0.6702603935E-02  0.1124238577E+00  0.2698515188E-02
H   0.7916032651E+00 -0.4282678478E+00 -0.3260765106E-01
H  -0.8607859663E+00 -0.4345542312E+00  0.1549270080E-01
           3
 Time step:           6
O   0.1645809971E-01  0.1160071573E+00  0.1298749892E-01
H   0.7895521138E+00 -0.4806623857E+00 -0.5831307134E-01
H  -0.9887526703E+00 -0.4393974953E+00 -0.1021943879E+00
           3
 Time step:           6
O  -0.2547223725E-02  0.1254498803E+00 -0.2380405036E-02
H   0.8736534536E+00 -0.4623656810E+00  0.4064363978E-01
H  -0.8458560478E+00 -0.5801072003E+00  0.1950891934E-01
           3
 Time step:           6
O  -0.1220025541E-02  0.1164102553E+00  0.1248796806E-04
H   0.8311436632E+00 -0.4599565837E+00  0.5463246396E-01
H  -0.8218751920E+00 -0.4649637240E+00 -0.3139243947E-01
           3
 Time step:           6
O   0.5949327101E-02  0.1230272226E+00 -0.3253063728E-02
H   0.7685001245E+00 -0.5752844180E+00  0.4602871110E-01
H  -0.8683734503E+00 -0.4389628359E+00  0.2687486061E-01
           3
 Time step:           6
O   0.3090727931E-02  0.1152631288E+00  0.2332955542E-02
H   0.7929726476E+00 -0.4710826783E+00  0.1900894193E-01
H  -0.8460091073E+00 -0.4338371265E+00 -0.3249029724E-01
           3
 Time step:           6
O   0.8091142870E-02  0.1232028083E+00 -0.4914893060E-03
H   0.7251099252E+00 -0.5078179991E+00  0.2298888488E-01
H  -0.8521351180E+00 -0.5172245371E+00  0.7324847034E-02
           3
 Time step:           7
O  -0.6699985719E-02  0.1184427482E+00  0.8871741833E-02
H   0.7959472499E+00 -0.4834347489E+00 -0.5815225203E-01
H  -0.7213354866E+00 -0.4675367541E+00 -0.4152534390E-01
           3
 Time step:           7
O  -0.2429509941E-03  0.1049900909E+00  0.7105321745E-02
H   0.8649045647E+00 -0.4816312236E+00 -0.5756933878E-01
H  -0.8612219114E+00 -0.3279727775E+00 -0.1531604502E-01
           3
 Time step:           7
O  -0.2933382939E-02  0.1195568554E+00  0.4607545563E-02
H   0.8976597388E+00 -0.5192343597E+00 -0.5076150379E-01
H  -0.8454412148E+00 -0.4444757190E+00  0.1627457596E-01
           3
 Time step:           7
O   0.7019232951E-02  0.1103310281E+00  0.3823571975E-02
H   0.7934810242E+00 -0.4167956538E+00 -0.3721178037E-01
H  -0.8540305642E+00 -0.4166990893E+00  0.1413157565E-01
           3
 Time step:           7
O   0.1831474151E-01  0.1146558087E+00  0.1612002072E-01
H   0.7906721505E+00 -0.4803808531E+00 -0.6807512040E-01
H  -0.9956240408E+00 -0.4218643998E+00 -0.1191909286E+00
           3
 Time step:           7
O  -0.3938279996E-02  0.1258422475E+00 -0.1630241537E-02
H   0.8888665139E+00 -0.4583313315E+00  0.4470890870E-01
H  -0.8425644049E+00 -0.5794814508E+00  0.1552839549E-01
           3
 Time step:           7
O  -0.2193535051E-02  0.1151314264E+00  0.1195376698E-02
H   0.8383619646E+00 -0.4560194015E+00  0.6051706134E-01
H  -0.8156933685E+00 -0.4515157047E+00 -0.4334399219E-01
           3
 Time step:           7
O   0.6102213463E-02  0.1232152967E+00 -0.2584595552E-02
H   0.7679703579E+00 -0.5881497376E+00  0.4931548208E-01
H  -0.8700836488E+00 -0.4228414806E+00  0.2450370546E-01
           3
 Time step:           7
O   0.3159964870E-02  0.1141413644E+00  0.3837875938E-02
H   0.7949689203E+00 -0.4693629558E+00  0.1827998052E-01
H  -0.8480550227E+00 -0.4199731434E+00 -0.4289823786E-01
           3
 Time step:           7
O   0.9114657795E-02  0.1233115297E+00  0.5431624149E-03
H   0.7179106625E+00 -0.5113718089E+00  0.2233373293E-01
H  -0.8572299702E+00 -0.5148127649E+00  0.3786012377E-02
           3
 Time step:           8
O  -0.8022461149E-02  0.1178245931E+00  0.1088988858E-01
H   0.7970289976E+00 -0.4815321230E+00 -0.6573670062E-01
H  -0.7125527002E+00 -0.4600971946E+00 -0.4978912181E-01
           3
 Time step:           8
O  -0.1375574250E-02  0.1010999709E+00  0.8823349563E-02
H   0.8756545792E+00 -0.4741934798E+00 -0.6459961157E-01
H  -0.8606752210E+00 -0.3073227870E+00 -0.2047263349E-01
           3
 Time step:           8
O  -0.4790981181E-02  0.1185672416E+00  0.5951298123E-02
H   0.9158056227E+00 -0.5165766265E+00 -0.5664490100E-01
H  -0.8427877496E+00 -0.4293086523E+00  0.1480878142E-01
           3
 Time step:           8
O   0.6895344461E-02  0.1077644608E+00  0.5028532744E-02
H   0.7922510262E+00 -0.4029720244E+00 -0.4100062302E-01
H  -0.8396191912E+00 -0.3950761493E+00  0.1177641203E-01
           3
 Time step:           8
O   0.1966229476E-01  0.1128550207E+00  0.1940990824E-01
H   0.7884104866E+00 -0.4780806283E+00 -0.7721890554E-01
H  -0.9924668826E+00 -0.4002846017E+00 -0.1352961219E+00
           3
 Time step:           8
O  -0.5726003370E-02  0.1258061848E+00 -0.6356027948E-03
H   0.9001745118E+00 -0.4519329709E+00  0.4835244517E-01
H  -0.8314470364E+00 -0.5722126792E+00  0.1026242748E-01
           3
 Time step:           8
O  -0.3486414172E-02  0.1133782010E+00  0.2631262876E-02
H   0.8417061922E+00 -0.4499982726E+00  0.6589031761E-01
H  -0.8024423094E+00 -0.4336117092E+00 -0.5636215198E-01
           3
 Time step:           8
O   0.5906660886E-02  0.1230585687E+00 -0.1658008433E-02
H   0.7645752671E+00 -0.5976038265E+00  0.5181844037E-01
H  -0.8649096304E+00 -0.4028904426E+00  0.2089832391E-01
           3
 Time step:           8
O   0.2945408937E-02  0.1127043525E+00  0.5569603137E-02
H   0.7942462140E+00 -0.4660697279E+00  0.1700210531E-01
H  -0.8441877264E+00 -0.4035101467E+00 -0.5396985433E-01
           3
 Time step:           8
O   0.9856889039E-02  0.1230989870E+00  0.1796916696E-02
H   0.7093818576E+00 -0.5134560548E+00  0.2104039324E-01
H  -0.8572539886E+00 -0.5090164666E+00 -0.3566083814E-03
           3
 Time step:           9
O  -0.9611284387E-02  0.1169809313E+00  0.1299522594E-01
H   0.7968280589E+00 -0.4781338612E+00 -0.7312364038E-01
H  -0.7033902833E+00 -0.4516259240E+00 -0.5805078682E-01
           3
 Time step:           9
O  -0.2952110715E-02  0.9662455319E-01  0.1059950269E-01
H   0.8839515517E+00 -0.4633077435E+00 -0.7115831752E-01
H  -0.8587069872E+00 -0.2878774417E+00 -0.2594620133E-01
           3
 Time step:           9
O  -0.7218489650E-02  0.1172361644E+00  0.7330772555E-02
H   0.9311196821E+00 -0.5104114341E+00 -0.6186448909E-01
H  -0.8391301236E+00 -0.4127225493E+00  0.1268289199E-01
           3
 Time step:           9
O   0.6330947910E-02  0.1047960056E+00  0.6247820066E-02
H   0.7880514275E+00 -0.3867620170E+00 -0.4398307393E-01
H  -0.8210892691E+00 -0.3715516367E+00  0.8483062185E-02
           3
 Time step:           9
O   0.2049933046E-01  0.1106846505E+00  0.2279264550E-01
H   0.7829633336E+00 -0.4736004689E+00 -0.8576938798E-01
H  -0.9830914397E+00 -0.3766134284E+00 -0.1504439701E+00
           3
 Time step:           9
O  -0.7873727414E-02  0.1254145114E+00  0.5500985572E-03
H   0.9076354395E+00 -0.4429921258E+00  0.5152089956E-01
H  -0.8158048456E+00 -0.5604467718E+00  0.3970063338E-02
           3
 Time step:           9
O  -0.5058591201E-02  0.1112166481E+00  0.4266659662E-02
H   0.8413432310E+00 -0.4417801147E+00  0.7071841634E-01
H  -0.7855103761E+00 -0.4131449897E+00 -0.7017002142E-01
           3
 Time step:           9
O   0.5386558741E-02  0.1226144757E+00 -0.5285127660E-03
H   0.7584629526E+00 -0.6033968370E+00  0.5352269860E-01
H  -0.8560229225E+00 -0.3808458024E+00  0.1629546310E-01
           3
 Time step:           9
O   0.2437692606E-02  0.1109963869E+00  0.7471722512E-02
H   0.7909868453E+00 -0.4610188518E+00  0.1518319893E-01
H  -0.8371098754E+00 -0.3860011260E+00 -0.6547269943E-01
           3
 Time step:           9
O   0.1027354855E-01  0.1225836908E+00  0.3209312019E-02
H   0.6996982146E+00 -0.5138549055E+00  0.1913897823E-01
H  -0.8544535529E+00 -0.5010652958E+00 -0.4859304205E-02
           3
 Time step:          10
O  -0.1157826356E-01  0.1159006876E+00  0.1513359551E-01
H   0.7954947575E+00 -0.4729389426E+00 -0.8041804839E-01
H  -0.6957230131E+00 -0.4433761590E+00 -0.6621449536E-01
           3
 Time step:          10
O  -0.5049044556E-02  0.9164040561E-01  0.1237720078E-01
H   0.8897725185E+00 -0.4488010719E+00 -0.7733060369E-01
H  -0.8581968299E+00 -0.2709119988E+00 -0.3169233395E-01
           3
 Time step:          10
O  -0.1026983825E-01  0.1156383523E+00  0.8685904786E-02
H   0.9433659970E+00 -0.5008260760E+00 -0.6648294290E-01
H  -0.8379660323E+00 -0.3968954609E+00  0.9904116645E-02
           3
 Time step:          10
O   0.5288223298E-02  0.1015303837E+00  0.7419093583E-02
H   0.7813734883E+00 -0.3683564766E+00 -0.4621534011E-01
H  -0.8025303817E+00 -0.3485855913E+00  0.4223192510E-02
           3
 Time step:          10
O   0.2078913757E-01  0.1082618107E+00  0.2620936346E-01
H   0.7749289468E+00 -0.4670201735E+00 -0.9381495140E-01
H  -0.9718844019E+00 -0.3534100343E+00 -0.1647425522E+00
           3
 Time step:          10
O  -0.1038762295E-01  0.1247790407E+00  0.1877620458E-02
H   0.9117368010E+00 -0.4315846850E+00  0.5412811486E-01
H  -0.7997447120E+00 -0.5470461018E+00 -0.3252700744E-02
           3
 Time step:          10
O  -0.6914560531E-02  0.1087485539E+00  0.6052219329E-02
H   0.8378466454E+00 -0.4314988222E+00  0.7493606811E-01
H  -0.7690360104E+00 -0.3926975453E+00 -0.8465713751E-01
           3
 Time step:          10
O   0.4520182584E-02  0.1219685926E+00  0.7519641794E-03
H   0.7501430669E+00 -0.6055706798E+00  0.5438141237E-01
H  -0.8472680574E+00 -0.3590612740E+00  0.1077871784E-01
           3
 Time step:          10
O   0.1584143479E-02  0.1090795348E+00  0.9490631109E-02
H   0.7856554703E+00 -0.4541801371E+00  0.1279353781E-01
H  -0.8301562074E+00 -0.3695072283E+00 -0.7732263417E-01
           3
 Time step:          10
O   0.1027628591E-01  0.1217932545E+00  0.4721073473E-02
H   0.6891887351E+00 -0.5124261576E+00  0.1661912175E-01
H  -0.8515695366E+00 -0.4926865473E+00 -0.9605571191E-02
           3
 Time step:          11
O  -0.1409051785E-01  0.1145486163E+00  0.1725519137E-01
H   0.7931748864E+00 -0.4656355723E+00 -0.8772532666E-01
H  -0.6909048349E+00 -0.4365156799E+00 -0.7427570359E-01
           3
 Time step:          11
O  -0.7798485104E-02  0.8623835278E-01  0.1410618454E-01
H   0.8932396700E+00 -0.4306429485E+00 -0.8321701583E-01
H  -0.8612956550E+00 -0.2576451830E+00 -0.3775540300E-01
           3
 Time step:          11
O  -0.1405095981E-01  0.1138383608E+00  0.9964515833E-02
H   0.9525811618E+00 -0.4880780906E+00 -0.7058900144E-01
H  -0.8419542447E+00 -0.3838931498E+00  0.6395502166E-02
           3
 Time step:          11
O   0.3661203830E-02  0.9806708055E-01  0.8489264896E-02
H   0.7729727477E+00 -0.3481384392E+00 -0.4778859367E-01
H  -0.7873092057E+00 -0.3285108953E+00 -0.1109370875E-02
           3
 Time step:          11
O   0.2042581692E-01  0.1057000588E+00  0.2961304297E-01
H   0.7652017646E+00 -0.4586289048E+00 -0.1014943647E+00
H  -0.9624905975E+00 -0.3330853979E+00 -0.1784405285E+00
           3
 Time step:          11
O  -0.1335062478E-01  0.1240093290E+00  0.3308208731E-02
H   0.9132869058E+00 -0.4180045154E+00  0.5606212755E-01
H  -0.7867711892E+00 -0.5347648429E+00 -0.1146560887E-01
           3
 Time step:          11
O  -0.9136310260E-02  0.1060709765E+00  0.7949065314E-02
H   0.8320819280E+00 -0.4194895132E+00  0.7845435733E-01
H  -0.7565093603E+00 -0.3747680973E+00 -0.9987258199E-01
           3
 Time step:          11
O   0.3210792414E-02  0.1211970282E+00  0.2141033264E-02
H   0.7403803429E+00 -0.6044122896E+00  0.5432489318E-01
H  -0.8418331358E+00 -0.3397764244E+00  0.4285293727E-02
           3
 Time step:          11
O   0.2648940539E-03  0.1070002076E+00  0.1158169950E-01
H   0.7789125323E+00 -0.4456712471E+00  0.9776352309E-02
H  -0.8260668544E+00 -0.3559272143E+00 -0.8957545639E-01
           3
 Time step:          11
O   0.9716592752E-02  0.1207378253E+00  0.6279995415E-02
H   0.6782832808E+00 -0.5091117570E+00  0.1344268494E-01
H  -0.8507498836E+00 -0.4855166969E+00 -0.1459683536E-01
           3
 Time step:          12
O  -0.1725079406E-01  0.1128546137E+00  0.1931972465E-01
H   0.7898985363E+00 -0.4561408992E+00 -0.9514624441E-01
H  -0.6895711993E+00 -0.4317676025E+00 -0.8228873012E-01
           3
 Time step:          12
O  -0.1127699942E-01  0.8050099079E-01  0.1574720530E-01
H   0.8945062998E+00 -0.4091632792E+00 -0.8892730428E-01
H  -0.8691018842E+00 -0.2488544572E+00 -0.4423256726E-01
           3
 Time step:          12
O  -0.1861618722E-01  0.1118670316E+00  0.1112661961E-01
H   0.9589607222E+00 -0.4727657898E+00 -0.7428969327E-01
H  -0.8524648746E+00 -0.3751764630E+00  0.2033570435E-02
           3
 Time step:          12
O   0.1377207055E-02  0.9447194888E-01  0.9418390686E-02
H   0.7636773919E+00 -0.3268460083E+00 -0.4881915409E-01
H  -0.7775779486E+00 -0.3129945980E+00 -0.7659291106E-02
           3
 Time step:          12
O   0.1933316181E-01  0.1030785054E+00  0.3297241964E-01
H   0.7547600070E+00 -0.4490903384E+00 -0.1089863423E+00
H  -0.9572854091E+00 -0.3173447709E+00 -0.1918607246E+00
           3
 Time step:          12
O  -0.1682329324E-01  0.1231813334E+00  0.4817684520E-02
H   0.9132001664E+00 -0.4029258480E+00  0.5718838742E-01
H  -0.7791864739E+00 -0.5256308962E+00 -0.2082999643E-01
           3
 Time step:          12
O  -0.1178297332E-01  0.1032460507E+00  0.9932940313E-02
H   0.8249905234E+00 -0.4064442099E+00  0.8116409713E-01
H  -0.7501894861E+00 -0.3611803244E+00 -0.1159710865E+00
           3
 Time step:          12
O   0.1389601085E-02  0.1203394057E+00  0.3610161292E-02
H   0.7299894570E+00 -0.6006077264E+00  0.5326500797E-01
H  -0.8417289609E+00 -0.3245636099E+00 -0.3344218144E-02
           3
 Time step:          12
O  -0.1600910989E-02  0.1047665366E+00  0.1371377412E-01
H   0.7714337005E+00 -0.4359548341E+00  0.6053717029E-02
H  -0.8265400912E+00 -0.3465056082E+00 -0.1023800882E+00
           3
 Time step:          12
O   0.8497673456E-02  0.1193933929E+00  0.7845538902E-02
H   0.6673706822E+00 -0.5041600991E+00  0.9552164093E-02
H  -0.8532225530E+00 -0.4806581341E+00 -0.1991134538E-01
           3
 Time step:          13
O  -0.2079390405E-01  0.1107339925E+00  0.2129231585E-01
H   0.7853868614E+00 -0.4450990992E+00 -0.1027701672E+00
H  -0.6920079411E+00 -0.4294595362E+00 -0.9032226702E-01
           3
 Time step:          13
O  -0.1520778631E-01  0.7450598129E-01  0.1726706808E-01
H   0.8935366299E+00 -0.3855141853E+00 -0.9457169743E-01
H  -0.8819753270E+00 -0.2448894954E+00 -0.5122292253E-01
           3
 Time step:          13
O  -0.2367595548E-01  0.1097314885E+00  0.1213875015E-01
H   0.9626160684E+00 -0.4562522643E+00 -0.7769961801E-01
H  -0.8698316876E+00 -0.3715755883E+00 -0.3296628255E-02
           3
 Time step:          13
O  -0.1309099179E-02  0.9078321884E-01  0.1017332169E-01
H   0.7541030422E+00 -0.3059828794E+00 -0.4943560414E-01
H  -0.7744749381E+00 -0.3029874824E+00 -0.1555121121E-01
           3
 Time step:          13
O   0.1775760452E-01  0.1004458890E+00  0.3626555646E-01
H   0.7443595792E+00 -0.4398547253E+00 -0.1164960078E+00
H  -0.9575507705E+00 -0.3071298861E+00 -0.2053168002E+00
           3
 Time step:          13
O  -0.2055043854E-01  0.1223410616E+00  0.6390206900E-02
H   0.9121888606E+00 -0.3878151177E+00  0.5735574637E-01
H  -0.7782194274E+00 -0.5208495553E+00 -0.3152753031E-01
           3
 Time step:          13
O  -0.1459621081E-01  0.1003060656E+00  0.1198805391E-01
H   0.8172842868E+00 -0.3938209387E+00  0.8294122654E-01
H  -0.7512545275E+00 -0.3529925149E+00 -0.1331315367E+00
           3
 Time step:          13
O  -0.6882743440E-03  0.1194067894E+00  0.5138898343E-02
H   0.7195419456E+00 -0.5956480745E+00  0.5110118889E-01
H  -0.8479791299E+00 -0.3142672030E+00 -0.1229131900E-01
           3
 Time step:          13
O  -0.3758496245E-02  0.1023602073E+00  0.1586381185E-01
H   0.7636417423E+00 -0.4262834534E+00  0.1533818431E-02
H  -0.8324574395E+00 -0.3418195511E+00 -0.1159102341E+00
           3
 Time step:          13
O   0.6873683062E-02  0.1177177074E+00  0.9383886734E-02
H   0.6565691310E+00 -0.4986000706E+00  0.4880514502E-02
H  -0.8595980260E+00 -0.4786792093E+00 -0.2564670791E-01
           3
 Time step:          14
O  -0.2400388204E-01  0.1081634874E+00  0.2311404437E-01
H   0.7790395767E+00 -0.4340776673E+00 -0.1106643595E+00
H  -0.6984153512E+00 -0.4298568433E+00 -0.9840595555E-01
           3
 Time step:          14
O  -0.1888161603E-01  0.6838239950E-01  0.1860798903E-01
H   0.8900561972E+00 -0.3618208016E+00 -0.1002476977E+00
H  -0.8998029330E+00 -0.2459643261E+00 -0.5876444764E-01
           3
 Time step:          14
O  -0.2852155945E-01  0.1074827150E+00  0.1294229822E-01
H   0.9634902617E+00 -0.4407959701E+00 -0.8092549891E-01
H  -0.8936122790E+00 -0.3735761986E+00 -0.9631286674E-02
           3
 Time step:          14
O  -0.3737128812E-02  0.8707589665E-01  0.1069511669E-01
H   0.7445602005E+00 -0.2879347157E+00 -0.4976105549E-01
H  -0.7783024977E+00 -0.2989972519E+00 -0.2481390727E-01
           3
 Time step:          14
O   0.1634660619E-01  0.9788338097E-01  0.3944709402E-01
H   0.7344238884E+00 -0.4332745094E+00 -0.1242359368E+00
H  -0.9636361638E+00 -0.3028888247E+00 -0.2190151639E+00
           3
 Time step:          14
O  -0.2388230040E-01  0.1215667645E+00  0.7985670736E-02
H   0.9106504666E+00 -0.3750480549E+00  0.5640836860E-01
H  -0.7841588397E+00 -0.5210556126E+00 -0.4365790865E-01
           3
 Time step:          14
O  -0.1692004134E-01  0.9731741330E-01  0.1407457847E-01
H   0.8093372528E+00 -0.3839616505E+00  0.8365760655E-01
H  -0.7599593600E+00 -0.3507436774E+00 -0.1514539968E+00
           3
 Time step:          14
O  -0.2363053782E-02  0.1184479781E+00  0.6682960209E-02
H   0.7092691032E+00 -0.5919411261E+00  0.4773118797E-01
H  -0.8607984195E+00 -0.3092726631E+00 -0.2266568848E-01
           3
 Time step:          14
O  -0.5537414012E-02  0.9980637885E-01  0.1798555919E-01
H   0.7556294594E+00 -0.4188422817E+00 -0.3877546743E-02
H  -0.8440725098E+00 -0.3420839228E+00 -0.1302789229E+00
           3
 Time step:          14
O   0.5530548234E-02  0.1157228740E+00  0.1083740948E-01
H   0.6456811571E+00 -0.4944105705E+00 -0.6352234611E-03
H  -0.8701035631E+00 -0.4799176407E+00 -0.3185004390E-01
           3
 Time step:          15
O  -0.2628071616E-01  0.1052856746E+00  0.2465820797E-01
H   0.7707998770E+00 -0.4248260178E+00 -0.1188591753E+00
H  -0.7086236869E+00 -0.4336879627E+00 -0.1064697992E+00
           3
 Time step:          15
O  -0.2172601954E-01  0.6239682862E-01  0.1964228047E-01
H   0.8843798381E+00 -0.3403906835E+00 -0.1060219055E+00
H  -0.9217505701E+00 -0.2526380710E+00 -0.6675975090E-01
           3
 Time step:          15
O  -0.3259673746E-01  0.1053124095E+00  0.1340685970E-01
H   0.9621493059E+00 -0.4287570777E+00 -0.8404526118E-01
H  -0.9223716470E+00 -0.3818012100E+00 -0.1684307551E-01
           3
 Time step:          15
O  -0.5408741992E-02  0.8355603817E-01  0.1085121186E-01
H   0.7358569318E+00 -0.2751633885E+00 -0.4988945888E-01
H  -0.7881979099E+00 -0.3015617067E+00 -0.3528743311E-01
           3
 Time step:          15