           3
Time step:                   1 Sim. Time [au]          20.00
O    -0.12083406E-02    0.11823639E+00    0.71734804E-03
H     0.76017630E+00   -0.47465119E+00   -0.76389810E-02
H    -0.74208773E+00   -0.47309442E+00   -0.36354902E-02
           3
Time step:                   1 Sim. Time [au]          20.00
O     0.81066265E-04    0.11683388E+00    0.45556731E-03
H     0.76619540E+00   -0.47498813E+00   -0.74345274E-02
H    -0.76835749E+00   -0.45066366E+00    0.31604936E-03
           3
Time step:                   1 Sim. Time [au]          20.00
O    -0.33617659E-03    0.11824762E+00    0.65861979E-04
H     0.76559873E+00   -0.47922395E+00   -0.61359322E-02
H    -0.76111751E+00   -0.46871596E+00    0.52038611E-02
           3
Time step:                   1 Sim. Time [au]          20.00
O     0.84447378E-03    0.11693728E+00   -0.66825672E-04
H     0.75310427E+00   -0.46236242E+00   -0.39391918E-02
H    -0.76722108E+00   -0.46483421E+00    0.51147413E-02
           3
Time step:                   1 Sim. Time [au]          20.00
O     0.23961138E-02    0.11732695E+00    0.14205686E-02
H     0.75213293E+00   -0.46850510E+00   -0.73862003E-02
H    -0.79072639E+00   -0.46489288E+00   -0.14960400E-01
           3
Time step:                   1 Sim. Time [au]          20.00
O    -0.44159779E-03    0.11871503E+00   -0.11987094E-02
H     0.76477007E+00   -0.46553258E+00    0.10228923E-01
H    -0.75880365E+00   -0.48976768E+00    0.88641314E-02
           3
Time step:                   1 Sim. Time [au]          20.00
O    -0.30953355E-03    0.11735821E+00   -0.82965713E-03
H     0.75887887E+00   -0.46505768E+00    0.13038242E-01
H    -0.75499949E+00   -0.46881613E+00    0.19951879E-03
           3
Time step:                   1 Sim. Time [au]          20.00
O     0.97117246E-03    0.11832666E+00   -0.14038556E-02
H     0.74766072E+00   -0.48470516E+00    0.12547246E-01
H    -0.76408768E+00   -0.46447017E+00    0.97915502E-02
           3
Time step:                   1 Sim. Time [au]          20.00
O     0.20812710E-03    0.11722501E+00   -0.41768769E-03
H     0.75505707E+00   -0.46841953E+00    0.78963939E-02
H    -0.75937081E+00   -0.46331688E+00   -0.11991709E-02
           3
Time step:                   1 Sim. Time [au]          20.00
O     0.98705921E-03    0.11883260E+00   -0.90415713E-03
H     0.74534042E+00   -0.47670849E+00    0.91261669E-02
H    -0.76200081E+00   -0.48049599E+00    0.52847877E-02
           3
Time step:                   2 Sim. Time [au]          40.00
O    -0.21631033E-02    0.11821812E+00    0.15646225E-02
H     0.76158891E+00   -0.47500808E+00   -0.15977059E-01
H    -0.73270248E+00   -0.47243399E+00   -0.78969393E-02
           3
Time step:                   2 Sim. Time [au]          40.00
O     0.35523434E-03    0.11515365E+00    0.10548834E-02
H     0.77299385E+00   -0.47452629E+00   -0.15724150E-01
H    -0.78247914E+00   -0.42577594E+00   -0.52555430E-04
           3
Time step:                   2 Sim. Time [au]          40.00
O    -0.38154634E-03    0.11805749E+00    0.29762821E-03
H     0.77200304E+00   -0.48249878E+00   -0.13355199E-01
H    -0.76953680E+00   -0.46252578E+00    0.96043054E-02
           3
Time step:                   2 Sim. Time [au]          40.00
O     0.20870154E-02    0.11536506E+00    0.49687950E-04
H     0.74532370E+00   -0.44835301E+00   -0.91621438E-02
H    -0.78088916E+00   -0.45438710E+00    0.93580339E-02
           3
Time step:                   2 Sim. Time [au]          40.00
O     0.52617523E-02    0.11618668E+00    0.31214830E-02
H     0.74297726E+00   -0.46128444E+00   -0.16471420E-01
H    -0.82771914E+00   -0.45462450E+00   -0.31371813E-01
           3
Time step:                   2 Sim. Time [au]          40.00
O    -0.61526399E-03    0.11902692E+00   -0.21105262E-02
H     0.76897680E+00   -0.45523962E+00    0.18544304E-01
H    -0.76426065E+00   -0.50468133E+00    0.15603059E-01
           3
Time step:                   2 Sim. Time [au]          40.00
O    -0.32983264E-03    0.11627270E+00   -0.13576693E-02
H     0.75702063E+00   -0.45450635E+00    0.23937526E-01
H    -0.75675817E+00   -0.46260483E+00   -0.17150861E-02
           3
Time step:                   2 Sim. Time [au]          40.00
O     0.21790556E-02    0.11830934E+00   -0.24910686E-02
H     0.73541394E+00   -0.49463188E+00    0.22555371E-01
H    -0.77481048E+00   -0.45420937E+00    0.17561023E-01
           3
Time step:                   2 Sim. Time [au]          40.00
O     0.75617063E-03    0.11611593E+00   -0.53750770E-03
H     0.74967477E+00   -0.46186452E+00    0.13271249E-01
H    -0.76646215E+00   -0.45254684E+00   -0.40732687E-02
           3
Time step:                   2 Sim. Time [au]          40.00
O     0.23170900E-02    0.11931695E+00   -0.15008972E-02
H     0.73087447E+00   -0.47848583E+00    0.15488065E-01
H    -0.77230481E+00   -0.48636476E+00    0.89468611E-02
           3
Time step:                   3 Sim. Time [au]          60.00
O    -0.29929639E-02    0.11808089E+00    0.25908899E-02
H     0.76202016E+00   -0.47443315E+00   -0.24715701E-01
H    -0.72606074E+00   -0.47082530E+00   -0.12980250E-01
           3
Time step:                   3 Sim. Time [au]          60.00
O     0.65191416E-03    0.11307452E+00    0.18407707E-02
H     0.77852064E+00   -0.47206759E+00   -0.24499901E-01
H    -0.79557509E+00   -0.39928036E+00   -0.12822006E-02
           3
Time step:                   3 Sim. Time [au]          60.00
O    -0.36213459E-03    0.11757996E+00    0.73175721E-03
H     0.77767053E+00   -0.48349814E+00   -0.21218878E-01
H    -0.77764832E+00   -0.45426540E+00    0.13046806E-01
           3
Time step:                   3 Sim. Time [au]          60.00
O     0.34775451E-02    0.11343986E+00    0.37992778E-03
H     0.73527356E+00   -0.43211559E+00   -0.15164672E-01
H    -0.79240591E+00   -0.44148877E+00    0.12600883E-01
           3
Time step:                   3 Sim. Time [au]          60.00
O     0.83166078E-02    0.11474418E+00    0.51287840E-02
H     0.73134822E+00   -0.45264212E+00   -0.26697821E-01
H    -0.86134323E+00   -0.44207987E+00   -0.48755603E-01
           3
Time step:                   3 Sim. Time [au]          60.00
O    -0.75273979E-03    0.11909780E+00   -0.26966559E-02
H     0.77129567E+00   -0.44345552E+00    0.25302184E-01
H    -0.76953467E+00   -0.51670730E+00    0.20007653E-01
           3
Time step:                   3 Sim. Time [au]          60.00
O    -0.28315249E-03    0.11490547E+00   -0.15473315E-02
H     0.75312440E+00   -0.44271913E+00    0.33068530E-01
H    -0.75854948E+00   -0.45401882E+00   -0.59013383E-02
           3
Time step:                   3 Sim. Time [au]          60.00
O     0.34173921E-02    0.11811101E+00   -0.32274303E-02
H     0.72186510E+00   -0.50353149E+00    0.30406735E-01
H    -0.78550104E+00   -0.44196523E+00    0.23121955E-01
           3
Time step:                   3 Sim. Time [au]          60.00
O     0.14518692E-02    0.11483317E+00   -0.32852624E-03
H     0.74231166E+00   -0.45421885E+00    0.16538089E-01
H    -0.77464458E+00   -0.44057962E+00   -0.87213688E-02
           3
Time step:                   3 Sim. Time [au]          60.00
O     0.38163668E-02    0.11959783E+00   -0.17625710E-02
H     0.71492805E+00   -0.47896512E+00    0.19515045E-01
H    -0.78435329E+00   -0.49027106E+00    0.10898351E-01
           3
Time step:                   4 Sim. Time [au]          80.00
O    -0.38115319E-02    0.11790906E+00    0.38347308E-02
H     0.76227489E+00   -0.47386287E+00   -0.33505499E-01
H    -0.71987691E+00   -0.46866405E+00   -0.19000680E-01
           3
Time step:                   4 Sim. Time [au]          80.00
O     0.80840481E-03    0.11066947E+00    0.28456833E-02
H     0.78405833E+00   -0.46875060E+00   -0.33338479E-01
H    -0.80504721E+00   -0.37290625E+00   -0.35032186E-02
           3
Time step:                   4 Sim. Time [au]          80.00
O    -0.50323661E-03    0.11693754E+00    0.13944179E-02
H     0.78432943E+00   -0.48371042E+00   -0.29230228E-01
H    -0.78225670E+00   -0.44446147E+00    0.15388914E-01
           3
Time step:                   4 Sim. Time [au]          80.00
O     0.47682071E-02    0.11129869E+00    0.94414147E-03
H     0.72495631E+00   -0.41569392E+00   -0.21382200E-01
H    -0.79800408E+00   -0.42669430E+00    0.14692203E-01
           3
Time step:                   4 Sim. Time [au]          80.00
O     0.11281296E-01    0.11314813E+00    0.74585367E-02
H     0.71949341E+00   -0.44477794E+00   -0.37443495E-01
H    -0.88718744E+00   -0.42787907E+00   -0.66679703E-01
           3
Time step:                   4 Sim. Time [au]          80.00
O    -0.10784426E-02    0.11907168E+00   -0.29282303E-02
H     0.77378334E+00   -0.43240073E+00    0.30951342E-01
H    -0.77158612E+00   -0.52561459E+00    0.21982710E-01
           3
Time step:                   4 Sim. Time [au]          80.00
O    -0.38256697E-03    0.11339672E+00   -0.13719388E-02
H     0.74923247E+00   -0.43192783E+00    0.40909178E-01
H    -0.75743802E+00   -0.44342595E+00   -0.12407727E-01
           3
Time step:                   4 Sim. Time [au]          80.00
O     0.44883274E-02    0.11786704E+00   -0.35885871E-02
H     0.70891601E+00   -0.51294399E+00    0.36601704E-01
H    -0.79324633E+00   -0.42815900E+00    0.26392410E-01
           3
Time step:                   4 Sim. Time [au]          80.00
O     0.21085242E-02    0.11350229E+00    0.23083557E-03
H     0.73470219E+00   -0.44710568E+00    0.18234521E-01
H    -0.78096948E+00   -0.42793652E+00   -0.15158711E-01
           3
Time step:                   4 Sim. Time [au]          80.00
O     0.53188694E-02    0.11977881E+00   -0.16705542E-02
H     0.69901330E+00   -0.47946111E+00    0.21766986E-01
H    -0.79522811E+00   -0.49252999E+00    0.11132310E-01
           3
Time step:                   5 Sim. Time [au]         100.00
O    -0.47076008E-02    0.11772860E+00    0.53116794E-02
H     0.76313604E+00   -0.47379379E+00   -0.42076306E-01
H    -0.71331293E+00   -0.46587000E+00   -0.25933326E-01
           3
Time step:                   5 Sim. Time [au]         100.00
O     0.69137882E-03    0.10796156E+00    0.40795483E-02
H     0.79087785E+00   -0.46529348E+00   -0.41904560E-01
H    -0.81039341E+00   -0.34780145E+00   -0.67373976E-02
           3
Time step:                   5 Sim. Time [au]         100.00
O    -0.99753713E-03    0.11621270E+00    0.22896840E-02
H     0.79370207E+00   -0.48425533E+00   -0.36988875E-01
H    -0.78263441E+00   -0.43329814E+00    0.16566165E-01
           3
Time step:                   5 Sim. Time [au]         100.00
O     0.57530792E-02    0.10904488E+00    0.17410225E-02
H     0.71644101E+00   -0.40076413E+00   -0.27355826E-01
H    -0.79681815E+00   -0.41025218E+00    0.15527584E-01
           3
Time step:                   5 Sim. Time [au]         100.00
O     0.13921907E-01    0.11151446E+00    0.10105802E-01
H     0.70971460E+00   -0.43946841E+00   -0.48199061E-01
H    -0.90413658E+00   -0.41232998E+00   -0.84749835E-01
           3
Time step:                   5 Sim. Time [au]         100.00
O    -0.17679305E-02    0.11905803E+00   -0.27976426E-02
H     0.77850148E+00   -0.42383624E+00    0.35860959E-01
H    -0.76935357E+00   -0.53106506E+00    0.21601109E-01
           3
Time step:                   5 Sim. Time [au]         100.00
O    -0.79095378E-03    0.11184884E+00   -0.82607304E-03
H     0.74735479E+00   -0.42386769E+00    0.47866882E-01
H    -0.75246025E+00   -0.43093472E+00   -0.21120346E-01
           3
Time step:                   5 Sim. Time [au]         100.00
O     0.52397970E-02    0.11767044E+00   -0.35714519E-02
H     0.69842678E+00   -0.52396634E+00    0.41577050E-01
H    -0.79704926E+00   -0.41289636E+00    0.27448830E-01
           3
Time step:                   5 Sim. Time [au]         100.00
O     0.25761073E-02    0.11220083E+00    0.11412427E-02
H     0.72858160E+00   -0.44170903E+00    0.18837920E-01
H    -0.78430417E+00   -0.41475522E+00   -0.23262706E-01
           3
Time step:                   5 Sim. Time [au]         100.00
O     0.66883087E-02    0.11991213E+00   -0.12270786E-02
H     0.68463553E+00   -0.48087196E+00    0.22748352E-01
H    -0.80372776E+00   -0.49307673E+00    0.97767027E-02
           3
Time step:                   6 Sim. Time [au]         120.00
O    -0.57437202E-02    0.11755885E+00    0.70104942E-02
H     0.76535645E+00   -0.47463676E+00   -0.50308191E-01
H    -0.70641786E+00   -0.46236724E+00   -0.33610942E-01
           3
Time step:                   6 Sim. Time [au]         120.00
O     0.20861320E-03    0.10497486E+00    0.55262774E-02
H     0.80008377E+00   -0.46225508E+00   -0.50027860E-01
H    -0.81242431E+00   -0.32476144E+00   -0.10884693E-01
           3
Time step:                   6 Sim. Time [au]         120.00
O    -0.19836349E-02    0.11549054E+00    0.33962586E-02
H     0.80721688E+00   -0.48605811E+00   -0.44274225E-01
H    -0.77969017E+00   -0.42109567E+00    0.16617193E-01
           3
Time step:                   6 Sim. Time [au]         120.00
O     0.62954287E-02    0.10678702E+00    0.27446957E-02
H     0.71151988E+00   -0.38871572E+00   -0.32822563E-01
H    -0.78989932E+00   -0.39257614E+00    0.15085975E-01
           3
Time step:                   6 Sim. Time [au]         120.00
O     0.16081276E-01    0.10996233E+00    0.13042005E-01
H     0.70396144E+00   -0.43810452E+00   -0.58665359E-01
H    -0.91323721E+00   -0.39588267E+00   -0.10261073E+00
           3
Time step:                   6 Sim. Time [au]         120.00
O    -0.29201645E-02    0.11916816E+00   -0.23211956E-02
H     0.78712795E+00   -0.41908631E+00    0.40221883E-01
H    -0.76324924E+00   -0.53314326E+00    0.19095664E-01
           3
Time step:                   6 Sim. Time [au]         120.00
O    -0.15940911E-02    0.11036392E+00    0.71964158E-04
H     0.74909446E+00   -0.41979951E+00    0.54173631E-01
H    -0.74412070E+00   -0.41690542E+00   -0.31771882E-01
           3
Time step:                   6 Sim. Time [au]         120.00
O     0.55892356E-02    0.11761125E+00   -0.31967792E-02
H     0.69188671E+00   -0.53738170E+00    0.45598054E-01
H    -0.79731880E+00   -0.39647151E+00    0.26518761E-01
           3
Time step:                   6 Sim. Time [au]         120.00
O     0.27608516E-02    0.11100054E+00    0.23796642E-02
H     0.72541668E+00   -0.43896091E+00    0.18656037E-01
H    -0.78482462E+00   -0.40127911E+00   -0.32777659E-01
           3
Time step:                   6 Sim. Time [au]         120.00
O     0.78303476E-02    0.12004540E+00   -0.45842538E-03
H     0.67311798E+00   -0.48394284E+00    0.22798976E-01
H    -0.80983505E+00   -0.49195543E+00    0.70916956E-02
           3
Time step:                   7 Sim. Time [au]         140.00
O    -0.69548767E-02    0.11742935E+00    0.89000629E-02
H     0.76969077E+00   -0.47669289E+00   -0.58213538E-01
H    -0.69973849E+00   -0.45837725E+00   -0.41788045E-01
           3
Time step:                   7 Sim. Time [au]         140.00
O    -0.68100859E-03    0.10175153E+00    0.71506764E-02
H     0.81250834E+00   -0.45993226E+00   -0.57683628E-01
H    -0.81265880E+00   -0.30444598E+00   -0.15774643E-01
           3
Time step:                   7 Sim. Time [au]         140.00
O    -0.35272570E-02    0.11486489E+00    0.46743760E-02
H     0.82577431E+00   -0.48966456E+00   -0.51025025E-01
H    -0.77526751E+00   -0.40859167E+00    0.15645835E-01
           3
Time step:                   7 Sim. Time [au]         140.00
O     0.63491709E-02    0.10464040E+00    0.39116411E-02
H     0.71142090E+00   -0.38038252E+00   -0.37694679E-01
H    -0.77936018E+00   -0.37452103E+00    0.13405615E-01
           3
Time step:                   7 Sim. Time [au]         140.00
O     0.17703004E-01    0.10861304E+00    0.16222181E-01
H     0.70349580E+00   -0.44139824E+00   -0.68736100E-01
H    -0.91670303E+00   -0.37939542E+00   -0.11998335E+00
           3
Time step:                   7 Sim. Time [au]         140.00
O    -0.45370013E-02    0.11951471E+00   -0.15316067E-02
H     0.80064914E+00   -0.41874937E+00    0.44058002E-01
H    -0.75471124E+00   -0.53262283E+00    0.14778701E-01
           3
Time step:                   7 Sim. Time [au]         140.00
O    -0.27817258E-02    0.10904436E+00    0.12880442E-02
H     0.75536926E+00   -0.42023559E+00    0.59890146E-01
H    -0.73394056E+00   -0.40223458E+00   -0.44022974E-01
           3
Time step:                   7 Sim. Time [au]         140.00
O     0.55398646E-02    0.11777962E+00   -0.25013658E-02
H     0.69018173E+00   -0.55344343E+00    0.48759236E-01
H    -0.79541978E+00   -0.37964957E+00    0.23902485E-01
           3
Time step:                   7 Sim. Time [au]         140.00
O     0.26398632E-02    0.10997376E+00    0.39070021E-02
H     0.72621425E+00   -0.43936920E+00    0.17825486E-01
H    -0.78358420E+00   -0.38813407E+00   -0.43388291E-01
           3
Time step:                   7 Sim. Time [au]         140.00
O     0.87021868E-02    0.12023265E+00    0.59228318E-03
H     0.66549585E+00   -0.48915423E+00    0.22092070E-01
H    -0.81428728E+00   -0.48960295E+00    0.34004857E-02
           3
Time step:                   8 Sim. Time [au]         160.00
O    -0.83504414E-02    0.11736862E+00    0.10936581E-01
H     0.77689561E+00   -0.47999417E+00   -0.65873123E-01
H    -0.69401333E+00   -0.45438416E+00   -0.50218327E-01
           3
Time step:                   8 Sim. Time [au]         160.00
O    -0.19653160E-02    0.98342937E-01    0.89054116E-02
H     0.82863523E+00   -0.45816752E+00   -0.64921298E-01
H    -0.81285969E+00   -0.28742908E+00   -0.21234280E-01
           3
Time step:                   8 Sim. Time [au]         160.00
O    -0.56140911E-02    0.11441754E+00    0.60725671E-02
H     0.84959857E+00   -0.49499749E+00   -0.57261294E-01
H    -0.77158639E+00   -0.39687615E+00    0.13763281E-01
           3
Time step:                   8 Sim. Time [au]         160.00
O     0.59635109E-02    0.10270228E+00    0.51872335E-02
H     0.71662819E+00   -0.37575277E+00   -0.41975313E-01
H    -0.76772189E+00   -0.35731067E+00    0.10537067E-01
           3
Time step:                   8 Sim. Time [au]         160.00
O     0.18835984E-01    0.10756355E+00    0.19591713E-01
H     0.70870090E+00   -0.44909684E+00   -0.78412983E-01
H    -0.91718453E+00   -0.36406002E+00   -0.13670450E+00
           3
Time step:                   8 Sim. Time [au]         160.00
O    -0.65217187E-02    0.12018601E+00   -0.47094645E-03
H     0.81919954E+00   -0.42243644E+00    0.47303510E-01
H    -0.74573830E+00   -0.53083366E+00    0.89455922E-02
           3
Time step:                   8 Sim. Time [au]         160.00
O    -0.42480436E-02    0.10796832E+00    0.27797231E-02
H     0.76628562E+00   -0.42470416E+00    0.64976232E-01
H    -0.72398439E+00   -0.38826025E+00   -0.57559467E-01
           3
Time step:                   8 Sim. Time [au]         160.00
O     0.51795624E-02    0.11824332E+00   -0.15305495E-02
H     0.69349503E+00   -0.57163587E+00    0.51050418E-01
H    -0.79321314E+00   -0.36357884E+00    0.19879437E-01
           3
Time step:                   8 Sim. Time [au]         160.00
O     0.22621735E-02    0.10917380E+00    0.56755360E-02
H     0.73142300E+00   -0.44278164E+00    0.16373849E-01
H    -0.78208985E+00   -0.37624987E+00   -0.54807282E-01
           3
Time step:                   8 Sim. Time [au]         160.00
O     0.93133359E-02    0.12051799E+00    0.18722484E-02
H     0.66245754E+00   -0.49650647E+00    0.20693401E-01
H    -0.81818554E+00   -0.48678544E+00   -0.99272778E-03
           3
Time step:                   9 Sim. Time [au]         180.00
O    -0.99290858E-02    0.11739461E+00    0.13066318E-01
H     0.78732641E+00   -0.48426387E+00   -0.73376689E-01
H    -0.68991834E+00   -0.45097105E+00   -0.58704491E-01
           3
Time step:                   9 Sim. Time [au]         180.00
O    -0.35971741E-02    0.94804511E-01    0.10733470E-01
H     0.84821892E+00   -0.45634212E+00   -0.71796626E-01
H    -0.81464635E+00   -0.27418259E+00   -0.27132299E-01
           3
Time step:                   9 Sim. Time [au]         180.00
O    -0.81698934E-02    0.11420279E+00    0.75298493E-02
H     0.87787793E+00   -0.50134728E+00   -0.63008322E-01
H    -0.77075315E+00   -0.38716260E+00    0.11049264E-01
           3
Time step:                   9 Sim. Time [au]         180.00
O     0.52544237E-02    0.10103425E+00    0.65075791E-02
H     0.72652170E+00   -0.37397036E+00   -0.45674030E-01
H    -0.75737598E+00   -0.34229278E+00    0.65108203E-02
           3
Time step:                   9 Sim. Time [au]         180.00
O     0.19602579E-01    0.10686876E+00    0.23088255E-01
H     0.71875426E+00   -0.46001795E+00   -0.87718769E-01
H    -0.91719576E+00   -0.35115778E+00   -0.15273867E+00
           3
Time step:                   9 Sim. Time [au]         180.00
O    -0.87129828E-02    0.12122876E+00    0.81135596E-03
H     0.84175862E+00   -0.42883944E+00    0.49885069E-01
H    -0.73837132E+00   -0.52932985E+00    0.18111484E-02
           3
Time step:                   9 Sim. Time [au]         180.00
O    -0.58271783E-02    0.10717302E+00    0.44984972E-02
H     0.78086011E+00   -0.43184401E+00    0.69369047E-01
H    -0.71633325E+00   -0.37647198E+00   -0.72156008E-01
           3
Time step:                   9 Sim. Time [au]         180.00
O     0.46479548E-02    0.11903240E+00   -0.33588637E-03
H     0.70101985E+00   -0.59071627E+00    0.52430983E-01
H    -0.79256005E+00   -0.34952141E+00    0.14647283E-01
           3
Time step:                   9 Sim. Time [au]         180.00
O     0.17224924E-02    0.10862130E+00    0.76313346E-02
H     0.74060086E+00   -0.44837807E+00    0.14289226E-01
H    -0.78186236E+00   -0.36662130E+00   -0.66831058E-01
           3
Time step:                   9 Sim. Time [au]         180.00
O     0.97055445E-02    0.12092319E+00    0.33213775E-02
H     0.66398070E+00   -0.50548044E+00    0.18625873E-01
H    -0.82262581E+00   -0.48438521E+00   -0.58545550E-02
           3
Time step:                  10 Sim. Time [au]         200.00
O    -0.11712175E-01    0.11751520E+00    0.15228541E-01
H     0.79980539E+00   -0.48899562E+00   -0.80789963E-01
H    -0.68791808E+00   -0.44868945E+00   -0.67114309E-01
           3
Time step:                  10 Sim. Time [au]         200.00
O    -0.55392197E-02    0.91200785E-01    0.12570777E-01
H     0.86927383E+00   -0.45354762E+00   -0.78334372E-01
H    -0.81921263E+00   -0.26505958E+00   -0.33390562E-01
           3
Time step:                  10 Sim. Time [au]         200.00
O    -0.11114446E-01    0.11424623E+00    0.89781081E-02
H     0.90786655E+00   -0.50758545E+00   -0.68254520E-01
H    -0.77435806E+00   -0.38055481E+00    0.75435421E-02
           3
Time step:                  10 Sim. Time [au]         200.00
O     0.43384357E-02    0.99661090E-01    0.78015642E-02
H     0.73850232E+00   -0.37361381E+00   -0.48759044E-01
H    -0.75015600E+00   -0.33067749E+00    0.13325120E-02
           3
Time step:                  10 Sim. Time [au]         200.00
O     0.20126936E-01    0.10654152E+00    0.26643778E-01
H     0.73081757E+00   -0.47238072E+00   -0.96647387E-01
H    -0.91866567E+00   -0.34179920E+00   -0.16815520E+00
           3
Time step:                  10 Sim. Time [au]         200.00
O    -0.10957507E-01    0.12264792E+00    0.22601824E-02
H     0.86535125E+00   -0.43609014E+00    0.51772090E-01
H    -0.73420459E+00   -0.52953903E+00   -0.65045199E-02
           3
Time step:                  10 Sim. Time [au]         200.00
O    -0.73663204E-02    0.10665489E+00    0.63913453E-02
H     0.79622330E+00   -0.43977970E+00    0.73034503E-01
H    -0.71259243E+00   -0.36819516E+00   -0.87688573E-01
           3
Time step:                  10 Sim. Time [au]         200.00
O     0.40690212E-02    0.12013978E+00    0.10265366E-02
H     0.71012050E+00   -0.60901459E+00    0.52879487E-01
H    -0.79487650E+00   -0.33857247E+00    0.83088370E-02
           3
Time step:                  10 Sim. Time [au]         200.00
O     0.11035166E-02    0.10830557E+00    0.97161630E-02
H     0.75149931E+00   -0.45488587E+00    0.11566840E-01
H    -0.78406121E+00   -0.36007886E+00   -0.79351301E-01
           3
Time step:                  10 Sim. Time [au]         200.00
O     0.99068410E-02    0.12144800E+00    0.48744616E-02
H     0.66832072E+00   -0.51517755E+00    0.15911534E-01
H    -0.82842278E+00   -0.48320473E+00   -0.11035050E-01
           3
Time step:                  11 Sim. Time [au]         220.00
O    -0.13789986E-01    0.11773620E+00    0.17362405E-01
H     0.81137904E+00   -0.49361399E+00   -0.88148922E-01
H    -0.68824016E+00   -0.44803161E+00   -0.75369620E-01
           3
Time step:                  11 Sim. Time [au]         220.00
O    -0.78266526E-02    0.87615293E-01    0.14352801E-01
H     0.88802108E+00   -0.44887294E+00   -0.84525055E-01
H    -0.82718285E+00   -0.26030981E+00   -0.39966373E-01
           3
Time step:                  11 Sim. Time [au]         220.00
O    -0.14438739E-01    0.11455490E+00    0.10348501E-01
H     0.93500544E+00   -0.51252119E+00   -0.72949254E-01
H    -0.78321481E+00   -0.37790270E+00    0.32675905E-02
           3
Time step:                  11 Sim. Time [au]         220.00
O     0.32429243E-02    0.98582995E-01    0.89970237E-02
H     0.74815458E+00   -0.37315387E+00   -0.51155282E-01
H    -0.74706403E+00   -0.32335912E+00   -0.49916807E-02
           3
Time step:                  11 Sim. Time [au]         220.00
O     0.20439637E-01    0.10656681E+00    0.30190708E-01
H     0.74027161E+00   -0.48431831E+00   -0.10516162E+00
H    -0.92264896E+00   -0.33674668E+00   -0.18307318E+00
           3
Time step:                  11 Sim. Time [au]         220.00
O    -0.13205148E-01    0.12442009E+00    0.38200640E-02
H     0.88527845E+00   -0.44228308E+00    0.52983441E-01
H    -0.73403658E+00   -0.53251250E+00   -0.15940946E-01
           3
Time step:                  11 Sim. Time [au]         220.00
O    -0.88197955E-02    0.10638292E+00    0.84055309E-02
H     0.80783079E+00   -0.44664531E+00    0.75980048E-01
H    -0.71354885E+00   -0.36436450E+00   -0.10409609E+00
           3
Time step:                  11 Sim. Time [au]         220.00
O     0.34642286E-02    0.12153446E+00    0.25011397E-02
H     0.71648069E+00   -0.62488399E+00    0.52408106E-01
H    -0.80083977E+00   -0.33147586E+00    0.90522392E-03
           3
Time step:                  11 Sim. Time [au]         220.00
O     0.39880683E-03    0.10819773E+00    0.11872855E-01
H     0.76012653E+00   -0.46094624E+00    0.82240868E-02
H    -0.78925381E+00   -0.35716450E+00   -0.92325397E-01
           3
Time step:                  11 Sim. Time [au]         220.00
O     0.98683848E-02    0.12208076E+00    0.64670850E-02
H     0.67194155E+00   -0.52458937E+00    0.12585078E-01
H    -0.83597530E+00   -0.48387280E+00   -0.16446563E-01
           3
Time step:                  12 Sim. Time [au]         240.00
O    -0.16342128E-01    0.11807058E+00    0.19415085E-01
H     0.81946970E+00   -0.49762470E+00   -0.95471382E-01
H    -0.69099699E+00   -0.44954856E+00   -0.83421519E-01
           3
Time step:                  12 Sim. Time [au]         240.00
O    -0.10602999E-01    0.84156449E-01    0.16022317E-01
H     0.90122711E+00   -0.44166429E+00   -0.90343381E-01
H    -0.83867066E+00   -0.26019258E+00   -0.46818553E-01
           3
Time step:                  12 Sim. Time [au]         240.00
O    -0.18254641E-01    0.11513078E+00    0.11578944E-01
H     0.95543126E+00   -0.51522445E+00   -0.77026380E-01
H    -0.79734761E+00   -0.37983560E+00   -0.17355614E-02
           3
Time step:                  12 Sim. Time [au]         240.00
O     0.18482740E-02    0.97791914E-01    0.10028018E-01
H     0.75179585E+00   -0.37137175E+00   -0.52772585E-01
H    -0.74826047E+00   -0.32092409E+00   -0.12410806E-01
           3
Time step:                  12 Sim. Time [au]         240.00
O     0.20416407E-01    0.10691978E+00    0.33669229E-01
H     0.74331616E+00   -0.49433345E+00   -0.11322222E+00
H    -0.92930828E+00   -0.33642581E+00   -0.19758942E+00
           3
Time step:                  12 Sim. Time [au]         240.00
O    -0.15568924E-01    0.12651052E+00    0.54415901E-02
H     0.89770149E+00   -0.44592338E+00    0.53562325E-01
H    -0.73780688E+00   -0.53889324E+00   -0.26431990E-01
           3
Time step:                  12 Sim. Time [au]         240.00
O    -0.10306873E-01    0.10631585E+00    0.10494325E-01
H     0.81201467E+00   -0.45102043E+00    0.78237333E-01
H    -0.71912548E+00   -0.36550339E+00   -0.12131110E+00
           3
Time step:                  12 Sim. Time [au]         240.00
O     0.27005679E-02    0.12317812E+00    0.40389084E-02
H     0.71659938E+00   -0.63708606E+00    0.51049346E-01
H    -0.81037461E+00   -0.32863884E+00   -0.75233634E-02
           3
Time step:                  12 Sim. Time [au]         240.00
O    -0.53328336E-03    0.10826692E+00    0.14051775E-01
H     0.76318081E+00   -0.46545346E+00    0.42909114E-02
H    -0.79742964E+00   -0.35819399E+00   -0.10572317E+00
           3
Time step:                  12 Sim. Time [au]         240.00
O     0.94291026E-02    0.12281142E+00    0.80427618E-02
H     0.67183383E+00   -0.53285841E+00    0.86863182E-02
H    -0.84533441E+00   -0.48691786E+00   -0.22024417E-01
           3
Time step:                  13 Sim. Time [au]         260.00
O    -0.19523313E-01    0.11853923E+00    0.21340748E-01
H     0.82321836E+00   -0.50062118E+00   -0.10277093E+00
H    -0.69657377E+00   -0.45402783E+00   -0.91226876E-01
           3
Time step:                  13 Sim. Time [au]         260.00
O    -0.14013425E-01    0.80948551E-01    0.17527827E-01
H     0.90764960E+00   -0.43157705E+00   -0.95767411E-01
H    -0.85368306E+00   -0.26514157E+00   -0.53875958E-01
           3
Time step:                  13 Sim. Time [au]         260.00