           3
 Time step:           1
O  -0.1208340554E-02  0.1182363908E+00  0.7173480392E-03
H   0.7601762964E+00 -0.4746511949E+00 -0.7638981014E-02
H  -0.7420877328E+00 -0.4730944178E+00 -0.3635490153E-02
           3
 Time step:           1
O   0.8106626465E-04  0.1168338809E+00  0.4555673054E-03
H   0.7661954011E+00 -0.4749881335E+00 -0.7434527356E-02
H  -0.7683574864E+00 -0.4506636562E+00  0.3160493572E-03
           3
 Time step:           1
O  -0.3361765879E-03  0.1182476163E+00  0.6586197883E-04
H   0.7655987332E+00 -0.4792239545E+00 -0.6135932249E-02
H  -0.7611175093E+00 -0.4687159629E+00  0.5203861135E-02
           3
 Time step:           1
O   0.8444737762E-03  0.1169372752E+00 -0.6682567161E-04
H   0.7531042671E+00 -0.4623624207E+00 -0.3939191793E-02
H  -0.7672210820E+00 -0.4648342128E+00  0.5114741331E-02
           3
 Time step:           1
O   0.2396113820E-02  0.1173269529E+00  0.1420568555E-02
H   0.7521329330E+00 -0.4685050993E+00 -0.7386200263E-02
H  -0.7907263860E+00 -0.4648928782E+00 -0.1496039996E-01
           3
 Time step:           1
O  -0.4415977911E-03  0.1187150302E+00 -0.1198709357E-02
H   0.7647700680E+00 -0.4655325825E+00  0.1022892338E-01
H  -0.7588036526E+00 -0.4897676793E+00  0.8864131375E-02
           3
 Time step:           1
O  -0.3095335512E-03  0.1173582147E+00 -0.8296571312E-03
H   0.7588788729E+00 -0.4650576770E+00  0.1303824191E-01
H  -0.7549994910E+00 -0.4688161350E+00  0.1995187884E-03
           3
 Time step:           1
O   0.9711724593E-03  0.1183266574E+00 -0.1403855606E-02
H   0.7476607153E+00 -0.4847051617E+00  0.1254724551E-01
H  -0.7640876780E+00 -0.4644701686E+00  0.9791550157E-02
           3
 Time step:           1
O   0.2081270972E-03  0.1172250066E+00 -0.4176876923E-03
H   0.7550570716E+00 -0.4684195338E+00  0.7896393930E-02
H  -0.7593708119E+00 -0.4633168777E+00 -0.1199170897E-02
           3
 Time step:           1
O   0.9870592059E-03  0.1188326045E+00 -0.9041571286E-03
H   0.7453404201E+00 -0.4767084860E+00  0.9126166931E-02
H  -0.7620008055E+00 -0.4804959868E+00  0.5284787682E-02
           3
 Time step:           2
O  -0.2163103273E-02  0.1182181222E+00  0.1564622475E-02
H   0.7615889058E+00 -0.4750080836E+00 -0.1597705895E-01
H  -0.7327024824E+00 -0.4724339914E+00 -0.7896939258E-02
           3
 Time step:           2
O   0.3552343371E-03  0.1151536474E+00  0.1054883424E-02
H   0.7729938547E+00 -0.4745262926E+00 -0.1572415006E-01
H  -0.7824791373E+00 -0.4257759394E+00 -0.5255543007E-04
           3
 Time step:           2
O  -0.3815463406E-03  0.1180574869E+00  0.2976282103E-03
H   0.7720030373E+00 -0.4824987849E+00 -0.1335519859E-01
H  -0.7695368033E+00 -0.4625257801E+00  0.9604305395E-02
           3
 Time step:           2
O   0.2087015423E-02  0.1153650637E+00  0.4968794993E-04
H   0.7453236986E+00 -0.4483530111E+00 -0.9162143809E-02
H  -0.7808891641E+00 -0.4543870993E+00  0.9358033942E-02
           3
 Time step:           2
O   0.5261752309E-02  0.1161866827E+00  0.3121483047E-02
H   0.7429772613E+00 -0.4612844445E+00 -0.1647142002E-01
H  -0.8277191425E+00 -0.4546245043E+00 -0.3137181307E-01
           3
 Time step:           2
O  -0.6152639909E-03  0.1190269153E+00 -0.2110526174E-02
H   0.7689767967E+00 -0.4552396153E+00  0.1854430436E-01
H  -0.7642606536E+00 -0.5046813328E+00  0.1560305910E-01
           3
 Time step:           2
O  -0.3298326351E-03  0.1162726958E+00 -0.1357669293E-02
H   0.7570206286E+00 -0.4545063491E+00  0.2393752609E-01
H  -0.7567581706E+00 -0.4626048300E+00 -0.1715086058E-02
           3
 Time step:           2
O   0.2179055639E-02  0.1183093435E+00 -0.2491068606E-02
H   0.7354139362E+00 -0.4946318787E+00  0.2255537102E-01
H  -0.7748104781E+00 -0.4542093684E+00  0.1756102288E-01
           3
 Time step:           2
O   0.7561706344E-03  0.1161159338E+00 -0.5375076982E-03
H   0.7496747686E+00 -0.4618645245E+00  0.1327124854E-01
H  -0.7664621451E+00 -0.4525468446E+00 -0.4073268684E-02
           3
 Time step:           2
O   0.2317090046E-02  0.1193169453E+00 -0.1500897198E-02
H   0.7308744697E+00 -0.4784858289E+00  0.1548806521E-01
H  -0.7723048118E+00 -0.4863647621E+00  0.8946861097E-02
           3
 Time step:           3
O  -0.2992963901E-02  0.1180808935E+00  0.2590889940E-02
H   0.7620201581E+00 -0.4744331470E+00 -0.2471570062E-01
H  -0.7260607378E+00 -0.4708252975E+00 -0.1298024961E-01
           3
 Time step:           3
O   0.6519141637E-03  0.1130745235E+00  0.1840770684E-02
H   0.7785206394E+00 -0.4720675859E+00 -0.2449990138E-01
H  -0.7955750851E+00 -0.3992803551E+00 -0.1282200626E-02
           3
 Time step:           3
O  -0.3621345879E-03  0.1175799597E+00  0.7317572072E-03
H   0.7776705330E+00 -0.4834981382E+00 -0.2121887825E-01
H  -0.7776483172E+00 -0.4542654016E+00  0.1304680553E-01
           3
 Time step:           3
O   0.3477545141E-02  0.1134398636E+00  0.3799277770E-03
H   0.7352735567E+00 -0.4321155880E+00 -0.1516467214E-01
H  -0.7924059136E+00 -0.4414887651E+00  0.1260088256E-01
           3
 Time step:           3
O   0.8316607801E-02  0.1147441798E+00  0.5128783975E-02
H   0.7313482161E+00 -0.4526421180E+00 -0.2669782083E-01
H  -0.8613432337E+00 -0.4420798668E+00 -0.4875560313E-01
           3
 Time step:           3
O  -0.7527397925E-03  0.1190977969E+00 -0.2696655935E-02
H   0.7712956698E+00 -0.4434555249E+00  0.2530218377E-01
H  -0.7695346738E+00 -0.5167073010E+00  0.2000765262E-01
           3
 Time step:           3
O  -0.2831524919E-03  0.1149054750E+00 -0.1547331519E-02
H   0.7531244026E+00 -0.4427191260E+00  0.3306852973E-01
H  -0.7585494758E+00 -0.4540188200E+00 -0.5901338283E-02
           3
 Time step:           3
O   0.3417392057E-02  0.1181110111E+00 -0.3227430343E-02
H   0.7218651016E+00 -0.5035314903E+00  0.3040673488E-01
H  -0.7855010357E+00 -0.4419652317E+00  0.2312195545E-01
           3
 Time step:           3
O   0.1451869152E-02  0.1148331676E+00 -0.3285262363E-03
H   0.7423116580E+00 -0.4542188489E+00  0.1653808878E-01
H  -0.7746445824E+00 -0.4405796190E+00 -0.8721368753E-02
           3
 Time step:           3
O   0.3816366758E-02  0.1195978318E+00 -0.1762570984E-02
H   0.7149280544E+00 -0.4789651154E+00  0.1951504457E-01
H  -0.7843532899E+00 -0.4902710568E+00  0.1089835083E-01
           3
 Time step:           4
O  -0.3811531905E-02  0.1179090579E+00  0.3834730775E-02
H   0.7622748940E+00 -0.4738628699E+00 -0.3350549926E-01
H  -0.7198769134E+00 -0.4686640534E+00 -0.1900068043E-01
           3
 Time step:           4
O   0.8084048068E-03  0.1106694716E+00  0.2845683280E-02
H   0.7840583260E+00 -0.4687505971E+00 -0.3333847943E-01
H  -0.8050472060E+00 -0.3729062549E+00 -0.3503218599E-02
           3
 Time step:           4
O  -0.5032366089E-03  0.1169375415E+00  0.1394417886E-02
H   0.7843294305E+00 -0.4837104214E+00 -0.2923022780E-01
H  -0.7822567013E+00 -0.4444614689E+00  0.1538891355E-01
           3
 Time step:           4
O   0.4768207129E-02  0.1112986870E+00  0.9441414728E-03
H   0.7249563097E+00 -0.4156939157E+00 -0.2138219963E-01
H  -0.7980040812E+00 -0.4266942989E+00  0.1469220318E-01
           3
 Time step:           4
O   0.1128129555E-01  0.1131481339E+00  0.7458536731E-02
H   0.7194934143E+00 -0.4447779383E+00 -0.3744349473E-01
H  -0.8871874416E+00 -0.4278790733E+00 -0.6667970268E-01
           3
 Time step:           4
O  -0.1078442616E-02  0.1190716847E+00 -0.2928230339E-02
H   0.7737833397E+00 -0.4324007335E+00  0.3095134198E-01
H  -0.7715861236E+00 -0.5256145946E+00  0.2198270977E-01
           3
 Time step:           4
O  -0.3825669707E-03  0.1133967173E+00 -0.1371938760E-02
H   0.7492324720E+00 -0.4319278311E+00  0.4090917805E-01
H  -0.7574380209E+00 -0.4434259483E+00 -0.1240772710E-01
           3
 Time step:           4
O   0.4488327422E-02  0.1178670440E+00 -0.3588587084E-02
H   0.7089160061E+00 -0.5129439869E+00  0.3660170393E-01
H  -0.7932463258E+00 -0.4281589974E+00  0.2639240978E-01
           3
 Time step:           4
O   0.2108524197E-02  0.1135022859E+00  0.2308355723E-03
H   0.7347021870E+00 -0.4471056762E+00  0.1823452095E-01
H  -0.7809694756E+00 -0.4279365151E+00 -0.1515871123E-01
           3
 Time step:           4
O   0.5318869372E-02  0.1197788136E+00 -0.1670554209E-02
H   0.6990133049E+00 -0.4794611060E+00  0.2176698644E-01
H  -0.7952281091E+00 -0.4925299891E+00  0.1113231023E-01
           3
 Time step:           5
O  -0.4707600806E-02  0.1177286040E+00  0.5311679426E-02
H   0.7631360374E+00 -0.4737937896E+00 -0.4207630583E-01
H  -0.7133129253E+00 -0.4658699967E+00 -0.2593332604E-01
           3
 Time step:           5
O   0.6913788168E-03  0.1079615648E+00  0.4079548312E-02
H   0.7908778476E+00 -0.4652934848E+00 -0.4190456033E-01
H  -0.8103934142E+00 -0.3478014463E+00 -0.6737397648E-02
           3
 Time step:           5
O  -0.9975371330E-03  0.1162127037E+00  0.2289684045E-02
H   0.7937020721E+00 -0.4842553338E+00 -0.3698887509E-01
H  -0.7826344126E+00 -0.4332981351E+00  0.1656616535E-01
           3
 Time step:           5
O   0.5753079165E-02  0.1090448829E+00  0.1741022477E-02
H   0.7164410130E+00 -0.4007641264E+00 -0.2735582573E-01
H  -0.7968181469E+00 -0.4102521791E+00  0.1552758447E-01
           3
 Time step:           5
O   0.1392190726E-01  0.1115144586E+00  0.1010580190E-01
H   0.7097146047E+00 -0.4394684097E+00 -0.4819906093E-01
H  -0.9041365808E+00 -0.4123299833E+00 -0.8474983464E-01
           3
 Time step:           5
O  -0.1767930477E-02  0.1190580346E+00 -0.2797642639E-02
H   0.7785014841E+00 -0.4238362439E+00  0.3586095881E-01
H  -0.7693535716E+00 -0.5310650636E+00  0.2160110854E-01
           3
 Time step:           5
O  -0.7909537789E-03  0.1118488375E+00 -0.8260730399E-03
H   0.7473547892E+00 -0.4238676885E+00  0.4786688182E-01
H  -0.7524602511E+00 -0.4309347158E+00 -0.2112034634E-01
           3
 Time step:           5
O   0.5239797032E-02  0.1176704435E+00 -0.3571451896E-02
H   0.6984267774E+00 -0.5239663361E+00  0.4157704972E-01
H  -0.7970492629E+00 -0.4128963634E+00  0.2744883044E-01
           3
 Time step:           5
O   0.2576107342E-02  0.1122008275E+00  0.1141242679E-02
H   0.7285815986E+00 -0.4417090343E+00  0.1883792034E-01
H  -0.7843041662E+00 -0.4147552186E+00 -0.2326270552E-01
           3
 Time step:           5
O   0.6688308677E-02  0.1199121281E+00 -0.1227078638E-02
H   0.6846355253E+00 -0.4808719577E+00  0.2274835207E-01
H  -0.8037277553E+00 -0.4930767258E+00  0.9776702688E-02
           3
 Time step:           6
O  -0.5743720208E-02  0.1175588509E+00  0.7010494201E-02
H   0.7653564520E+00 -0.4746367618E+00 -0.5030819148E-01
H  -0.7064178601E+00 -0.4623672354E+00 -0.3361094240E-01
           3
 Time step:           6
O   0.2086131967E-03  0.1049748648E+00  0.5526277417E-02
H   0.8000837682E+00 -0.4622550789E+00 -0.5002785982E-01
H  -0.8124243115E+00 -0.3247614408E+00 -0.1088469305E-01
           3
 Time step:           6
O  -0.1983634910E-02  0.1154905427E+00  0.3396258597E-02
H   0.8072168771E+00 -0.4860581070E+00 -0.4427422545E-01
H  -0.7796901690E+00 -0.4210956660E+00  0.1661719344E-01
           3
 Time step:           6
O   0.6295428661E-02  0.1067870232E+00  0.2744695668E-02
H   0.7115198844E+00 -0.3887157173E+00 -0.3282256325E-01
H  -0.7898993179E+00 -0.3925761377E+00  0.1508597516E-01
           3
 Time step:           6
O   0.1608127572E-01  0.1099623335E+00  0.1304200547E-01
H   0.7039614378E+00 -0.4381045211E+00 -0.5866535912E-01
H  -0.9132372123E+00 -0.3958826735E+00 -0.1026107341E+00
           3
 Time step:           6
O  -0.2920164463E-02  0.1191681606E+00 -0.2321195644E-02
H   0.7871279546E+00 -0.4190863081E+00  0.4022188254E-01
H  -0.7632492421E+00 -0.5331432553E+00  0.1909566366E-01
           3
 Time step:           6
O  -0.1594091079E-02  0.1103639152E+00  0.7196415757E-04
H   0.7490944624E+00 -0.4197995088E+00  0.5417363081E-01
H  -0.7441207044E+00 -0.4169054154E+00 -0.3177188231E-01
           3
 Time step:           6
O   0.5589235558E-02  0.1176112502E+00 -0.3196779243E-02
H   0.6918867127E+00 -0.5373816988E+00  0.4559805385E-01
H  -0.7973187965E+00 -0.3964715119E+00  0.2651876081E-01
           3
 Time step:           6
O   0.2760851613E-02  0.1110005359E+00  0.2379664247E-02
H   0.7254166789E+00 -0.4389609061E+00  0.1865603671E-01
H  -0.7848246161E+00 -0.4012791149E+00 -0.3277765889E-01
           3
 Time step:           6
O   0.7830347588E-02  0.1200453978E+00 -0.4584253826E-03
H   0.6731179818E+00 -0.4839428444E+00  0.2279897571E-01
H  -0.8098350501E+00 -0.4919554311E+00  0.7091695630E-02
           3
 Time step:           7
O  -0.6954876703E-02  0.1174293467E+00  0.8900062858E-02
H   0.7696907696E+00 -0.4766928928E+00 -0.5821353848E-01
H  -0.6997384854E+00 -0.4583772465E+00 -0.4178804487E-01
           3
 Time step:           7
O  -0.6810085875E-03  0.1017515299E+00  0.7150676405E-02
H   0.8125083442E+00 -0.4599322589E+00 -0.5768362751E-01
H  -0.8126587967E+00 -0.3044459790E+00 -0.1577464324E-01
           3
 Time step:           7
O  -0.3527257031E-02  0.1148648862E+00  0.4674375973E-02
H   0.8257743117E+00 -0.4896645574E+00 -0.5102502469E-01
H  -0.7752675108E+00 -0.4085916715E+00  0.1564583476E-01
           3
 Time step:           7
O   0.6349170879E-02  0.1046404003E+00  0.3911641122E-02
H   0.7114209036E+00 -0.3803825196E+00 -0.3769467935E-01
H  -0.7793601784E+00 -0.3745210271E+00  0.1340561491E-01
           3
 Time step:           7
O   0.1770300358E-01  0.1086130372E+00  0.1622218115E-01
H   0.7034958041E+00 -0.4413982355E+00 -0.6873609955E-01
H  -0.9167030281E+00 -0.3793954188E+00 -0.1199833456E+00
           3
 Time step:           7
O  -0.4537001350E-02  0.1195147089E+00 -0.1531606726E-02
H   0.8006491384E+00 -0.4187493692E+00  0.4405800239E-01
H  -0.7547112428E+00 -0.5326228270E+00  0.1477870068E-01
           3
 Time step:           7
O  -0.2781725795E-02  0.1090443597E+00  0.1288044235E-02
H   0.7553692591E+00 -0.4202355899E+00  0.5989014573E-01
H  -0.7339405563E+00 -0.4022345794E+00 -0.4402297428E-01
           3
 Time step:           7
O   0.5539864580E-02  0.1177796179E+00 -0.2501365758E-02
H   0.6901817275E+00 -0.5534434270E+00  0.4875923577E-01
H  -0.7954197769E+00 -0.3796495689E+00  0.2390248496E-01
           3
 Time step:           7
O   0.2639863173E-02  0.1099737598E+00  0.3907002054E-02
H   0.7262142533E+00 -0.4393692034E+00  0.1782548614E-01
H  -0.7835841995E+00 -0.3881340712E+00 -0.4338829082E-01
           3
 Time step:           7
O   0.8702186792E-02  0.1202326492E+00  0.5922831824E-03
H   0.6654958469E+00 -0.4891542285E+00  0.2209206968E-01
H  -0.8142872811E+00 -0.4896029455E+00  0.3400485722E-02
           3
 Time step:           8
O  -0.8350441372E-02  0.1173686211E+00  0.1093658064E-01
H   0.7768956142E+00 -0.4799941687E+00 -0.6587312299E-01
H  -0.6940133290E+00 -0.4543841600E+00 -0.5021832659E-01
           3
 Time step:           8
O  -0.1965316031E-02  0.9834293685E-01  0.8905411618E-02
H   0.8286352279E+00 -0.4581675215E+00 -0.6492129765E-01
H  -0.8128596917E+00 -0.2874290836E+00 -0.2123427969E-01
           3
 Time step:           8
O  -0.5614091078E-02  0.1144175352E+00  0.6072567073E-02
H   0.8495985721E+00 -0.4949974899E+00 -0.5726129423E-01
H  -0.7715863909E+00 -0.3968761465E+00  0.1376328131E-01
           3
 Time step:           8
O   0.5963510882E-02  0.1027022767E+00  0.5187233504E-02
H   0.7166281886E+00 -0.3757527681E+00 -0.4197531266E-01
H  -0.7677218867E+00 -0.3573106693E+00  0.1053706671E-01
           3
 Time step:           8
O   0.1883598378E-01  0.1075635464E+00  0.1959171299E-01
H   0.7087008961E+00 -0.4490968408E+00 -0.7841298285E-01
H  -0.9171845333E+00 -0.3640600232E+00 -0.1367044986E+00
           3
 Time step:           8
O  -0.6521718663E-02  0.1201860060E+00 -0.4709464502E-03
H   0.8191995355E+00 -0.4224364362E+00  0.4730351025E-01
H  -0.7457382994E+00 -0.5308336586E+00  0.8945592223E-02
           3
 Time step:           8
O  -0.4248043604E-02  0.1079683173E+00  0.2779723091E-02
H   0.7662856231E+00 -0.4247041552E+00  0.6497623181E-01
H  -0.7239843891E+00 -0.3882602515E+00 -0.5755946726E-01
           3
 Time step:           8
O   0.5179562417E-02  0.1182433180E+00 -0.1530549462E-02
H   0.6934950255E+00 -0.5716358741E+00  0.5105041760E-01
H  -0.7932131410E+00 -0.3635788385E+00  0.1987943658E-01
           3
 Time step:           8
O   0.2262173515E-02  0.1091737991E+00  0.5675535990E-02
H   0.7314230039E+00 -0.4427816398E+00  0.1637384878E-01
H  -0.7820898459E+00 -0.3762498676E+00 -0.5480728168E-01
           3
 Time step:           8
O   0.9313335865E-02  0.1205179940E+00  0.1872248447E-02
H   0.6624575380E+00 -0.4965064654E+00  0.2069340056E-01
H  -0.8181855383E+00 -0.4867854442E+00 -0.9927277774E-03
           3
 Time step:           9
O  -0.9929085761E-02  0.1173946067E+00  0.1306631779E-01
H   0.7873264131E+00 -0.4842638664E+00 -0.7337668937E-01
H  -0.6899183366E+00 -0.4509710549E+00 -0.5870449109E-01
           3
 Time step:           9
O  -0.3597174084E-02  0.9480451148E-01  0.1073347001E-01
H   0.8482189185E+00 -0.4563421245E+00 -0.7179662588E-01
H  -0.8146463497E+00 -0.2741825917E+00 -0.2713229921E-01
           3
 Time step:           9
O  -0.8169893392E-02  0.1142027865E+00  0.7529849342E-02
H   0.8778779260E+00 -0.5013472823E+00 -0.6300832181E-01
H  -0.7707531460E+00 -0.3871625980E+00  0.1104926375E-01
           3
 Time step:           9
O   0.5254423677E-02  0.1010342502E+00  0.6507579088E-02
H   0.7265216960E+00 -0.3739703642E+00 -0.4567403018E-01
H  -0.7573759850E+00 -0.3422927835E+00  0.6510820251E-02
           3
 Time step:           9
O   0.1960257878E-01  0.1068687587E+00  0.2308825515E-01
H   0.7187542569E+00 -0.4600179464E+00 -0.8771876939E-01
H  -0.9171957639E+00 -0.3511577844E+00 -0.1527386727E+00
           3
 Time step:           9
O  -0.8712982781E-02  0.1212287582E+00  0.8113559585E-03
H   0.8417586178E+00 -0.4288394412E+00  0.4988506902E-01
H  -0.7383713166E+00 -0.5293298482E+00  0.1811148435E-02
           3
 Time step:           9
O  -0.5827178341E-02  0.1071730233E+00  0.4498497165E-02
H   0.7808601100E+00 -0.4318440082E+00  0.6936904698E-01
H  -0.7163332460E+00 -0.3764719793E+00 -0.7215600806E-01
           3
 Time step:           9
O   0.4647954843E-02  0.1190323987E+00 -0.3358863668E-03
H   0.7010198458E+00 -0.5907162700E+00  0.5243098330E-01
H  -0.7925600499E+00 -0.3495214141E+00  0.1464728285E-01
           3
 Time step:           9
O   0.1722492448E-02  0.1086213005E+00  0.7631334565E-02
H   0.7406008637E+00 -0.4483780713E+00  0.1428922619E-01
H  -0.7818623571E+00 -0.3666212971E+00 -0.6683105770E-01
           3
 Time step:           9
O   0.9705544481E-02  0.1209231852E+00  0.3321377491E-02
H   0.6639806973E+00 -0.5054804419E+00  0.1862587341E-01
H  -0.8226258064E+00 -0.4843852098E+00 -0.5854555026E-02
           3
 Time step:          10
O  -0.1171217461E-01  0.1175151996E+00  0.1522854080E-01
H   0.7998053906E+00 -0.4889956211E+00 -0.8078996344E-01
H  -0.6879180829E+00 -0.4486894544E+00 -0.6711430922E-01
           3
 Time step:          10
O  -0.5539219735E-02  0.9120078518E-01  0.1257077657E-01
H   0.8692738255E+00 -0.4535476234E+00 -0.7833437222E-01
H  -0.8192126307E+00 -0.2650595751E+00 -0.3339056238E-01
           3
 Time step:          10
O  -0.1111444569E-01  0.1142462268E+00  0.8978108089E-02
H   0.9078665484E+00 -0.5075854479E+00 -0.6825452041E-01
H  -0.7743580578E+00 -0.3805548073E+00  0.7543542092E-02
           3
 Time step:          10
O   0.4338435659E-02  0.9966108965E-01  0.7801564226E-02
H   0.7385023233E+00 -0.3736138126E+00 -0.4875904450E-01
H  -0.7501559975E+00 -0.3306774892E+00  0.1332511969E-02
           3
 Time step:          10
O   0.2012693620E-01  0.1065415187E+00  0.2664377839E-01
H   0.7308175656E+00 -0.4723807172E+00 -0.9664738708E-01
H  -0.9186656663E+00 -0.3417991977E+00 -0.1681552041E+00
           3
 Time step:          10
O  -0.1095750674E-01  0.1226479221E+00  0.2260182366E-02
H   0.8653512470E+00 -0.4360901368E+00  0.5177209022E-01
H  -0.7342045898E+00 -0.5295390344E+00 -0.6504519918E-02
           3
 Time step:          10
O  -0.7366320412E-02  0.1066548938E+00  0.6391345326E-02
H   0.7962233018E+00 -0.4397796987E+00  0.7303450304E-01
H  -0.7125924257E+00 -0.3681951624E+00 -0.8768857332E-01
           3
 Time step:          10
O   0.4069021188E-02  0.1201397809E+00  0.1026536603E-02
H   0.7101205046E+00 -0.6090145854E+00  0.5287948745E-01
H  -0.7948765032E+00 -0.3385724719E+00  0.8308836952E-02
           3
 Time step:          10
O   0.1103516563E-02  0.1083055732E+00  0.9716162970E-02
H   0.7514993097E+00 -0.4548858740E+00  0.1156683956E-01
H  -0.7840612132E+00 -0.3600788555E+00 -0.7935130060E-01
           3
 Time step:          10
O   0.9906840977E-02  0.1214479995E+00  0.4874461611E-02
H   0.6683207191E+00 -0.5151775498E+00  0.1591153424E-01
H  -0.8284227843E+00 -0.4832047293E+00 -0.1103504971E-01
           3
 Time step:          11
O  -0.1378998607E-01  0.1177362040E+00  0.1736240499E-01
H   0.8113790413E+00 -0.4936139887E+00 -0.8814892199E-01
H  -0.6882401617E+00 -0.4480316089E+00 -0.7536962017E-01
           3
 Time step:          11
O  -0.7826652569E-02  0.8761529269E-01  0.1435280077E-01
H   0.8880210820E+00 -0.4488729398E+00 -0.8452505505E-01
H  -0.8271828502E+00 -0.2603098102E+00 -0.3996637314E-01
           3
 Time step:          11
O  -0.1443873865E-01  0.1145549000E+00  0.1034850138E-01
H   0.9350054440E+00 -0.5125211874E+00 -0.7294925394E-01
H  -0.7832148131E+00 -0.3779027030E+00  0.3267590503E-02
           3
 Time step:          11
O   0.3242924279E-02  0.9858299462E-01  0.8997023748E-02
H   0.7481545770E+00 -0.3731538734E+00 -0.5115528183E-01
H  -0.7470640320E+00 -0.3233591195E+00 -0.4991680744E-02
           3
 Time step:          11
O   0.2043963668E-01  0.1065668073E+00  0.3019070828E-01
H   0.7402716072E+00 -0.4843183061E+00 -0.1051616193E+00
H  -0.9226489558E+00 -0.3367466780E+00 -0.1830731799E+00
           3
 Time step:          11
O  -0.1320514824E-01  0.1244200921E+00  0.3820063997E-02
H   0.8852784499E+00 -0.4422830807E+00  0.5298344092E-01
H  -0.7340365837E+00 -0.5325125007E+00 -0.1594094597E-01
           3
 Time step:          11
O  -0.8819795531E-02  0.1063829178E+00  0.8405530923E-02
H   0.8078307854E+00 -0.4466453101E+00  0.7598004832E-01
H  -0.7135488456E+00 -0.3643645049E+00 -0.1040960886E+00
           3
 Time step:          11
O   0.3464228617E-02  0.1215344595E+00  0.2501139663E-02
H   0.7164806851E+00 -0.6248839945E+00  0.5240810586E-01
H  -0.8008397682E+00 -0.3314758595E+00  0.9052239188E-03
           3
 Time step:          11
O   0.3988068322E-03  0.1081977330E+00  0.1187285508E-01
H   0.7601265337E+00 -0.4609462377E+00  0.8224086778E-02
H  -0.7892538080E+00 -0.3571644955E+00 -0.9232539668E-01
           3
 Time step:          11
O   0.9868384805E-02  0.1220807627E+00  0.6467085004E-02
H   0.6719415512E+00 -0.5245893651E+00  0.1258507752E-01
H  -0.8359753002E+00 -0.4838727982E+00 -0.1644656261E-01
           3
 Time step:          12
O  -0.1634212836E-01  0.1180705784E+00  0.1941508481E-01
H   0.8194697032E+00 -0.4976247003E+00 -0.9547138212E-01
H  -0.6909969876E+00 -0.4495485592E+00 -0.8342151930E-01
           3
 Time step:          12
O  -0.1060299928E-01  0.8415644908E-01  0.1602231748E-01
H   0.9012271137E+00 -0.4416642894E+00 -0.9034338145E-01
H  -0.8386706644E+00 -0.2601925808E+00 -0.4681855333E-01
           3
 Time step:          12
O  -0.1825464085E-01  0.1151307813E+00  0.1157894406E-01
H   0.9554312562E+00 -0.5152244472E+00 -0.7702638009E-01
H  -0.7973476095E+00 -0.3798356011E+00 -0.1735561372E-02
           3
 Time step:          12
O   0.1848273965E-02  0.9779191363E-01  0.1002801793E-01
H   0.7517958548E+00 -0.3713717482E+00 -0.5277258461E-01
H  -0.7482604711E+00 -0.3209240868E+00 -0.1241080589E-01
           3
 Time step:          12
O   0.2041640740E-01  0.1069197780E+00  0.3366922902E-01
H   0.7433161584E+00 -0.4943334490E+00 -0.1132222228E+00
H  -0.9293082785E+00 -0.3364258130E+00 -0.1975894160E+00
           3
 Time step:          12
O  -0.1556892398E-01  0.1265105192E+00  0.5441590132E-02
H   0.8977014867E+00 -0.4459233804E+00  0.5356232515E-01
H  -0.7378068804E+00 -0.5388932424E+00 -0.2643198970E-01
           3
 Time step:          12
O  -0.1030687257E-01  0.1063158514E+00  0.1049432517E-01
H   0.8120146749E+00 -0.4510204342E+00  0.7823733263E-01
H  -0.7191254828E+00 -0.3655033941E+00 -0.1213110986E+00
           3
 Time step:          12
O   0.2700567857E-02  0.1231781172E+00  0.4038908442E-02
H   0.7165993758E+00 -0.6370860641E+00  0.5104934618E-01
H  -0.8103746120E+00 -0.3286388368E+00 -0.7523363386E-02
           3
 Time step:          12
O  -0.5332833566E-03  0.1082669247E+00  0.1405177533E-01
H   0.7631808067E+00 -0.4654534570E+00  0.4290911419E-02
H  -0.7974296354E+00 -0.3581939887E+00 -0.1057231729E+00
           3
 Time step:          12
O   0.9429102551E-02  0.1228114217E+00  0.8042761786E-02
H   0.6718338314E+00 -0.5328584074E+00  0.8686318246E-02
H  -0.8453344072E+00 -0.4869178634E+00 -0.2202441722E-01
           3
 Time step:          13
O  -0.1952331265E-01  0.1185392255E+00  0.2134074781E-01
H   0.8232183564E+00 -0.5006211772E+00 -0.1027709252E+00
H  -0.6965737675E+00 -0.4540278316E+00 -0.9122687582E-01
           3
 Time step:          13
O  -0.1401342483E-01  0.8094855136E-01  0.1752782705E-01
H   0.9076495983E+00 -0.4315770504E+00 -0.9576741101E-01
H  -0.8536830634E+00 -0.2651415709E+00 -0.5387595791E-01
           3
 Time step:          13
O  -0.2269572993E-01  0.1159750149E+00  0.1261207367E-01
H   0.9675171396E+00 -0.5151058498E+00 -0.8042767196E-01
H  -0.8163926761E+00 -0.3869203389E+00 -0.7364406132E-02
           3
 Time step:          13
O  -0.1345698162E-04  0.9727764168E-01  0.1083247874E-01
H   0.7480255384E+00 -0.3674869632E+00 -0.5353315195E-01
H  -0.7534805539E+00 -0.3238042252E+00 -0.2078907130E-01
           3
 Time step:          13
O   0.1987688629E-01  0.1075727092E+00  0.3702511016E-01
H   0.7385290022E+00 -0.5014359366E+00 -0.1208160842E+00
H  -0.9383353954E+00 -0.3410868798E+00 -0.2117159944E+00
           3
 Time step:          13
O  -0.1822453790E-01  0.1288794660E+00  0.7078648984E-02
H   0.9011818804E+00 -0.4460476506E+00  0.5354758498E-01
H  -0.7449954858E+00 -0.5490650012E+00 -0.3784259909E-01
           3
 Time step:          13
O  -0.1200873572E-01  0.1064091757E+00  0.1261377715E-01
H   0.8074955125E+00 -0.4520348615E+00  0.7983867354E-01
H  -0.7288052534E+00 -0.3718748233E+00 -0.1391933730E+00
           3
 Time step:          13
O   0.1595719551E-02  0.1250313944E+00  0.5594558792E-02
H   0.7092784756E+00 -0.6448762827E+00  0.4883610956E-01
H  -0.8230805459E+00 -0.3302998522E+00 -0.1687934505E-01
           3
 Time step:          13
O  -0.1864748794E-02  0.1084861567E+00  0.1620837065E-01
H   0.7595226046E+00 -0.4676467614E+00 -0.2062348775E-03
H  -0.8084092071E+00 -0.3634433670E+00 -0.1194758351E+00
           3
 Time step:          13
O   0.8423467956E-02  0.1236349538E+00  0.9551139108E-02
H   0.6669423392E+00 -0.5393410331E+00  0.4247702376E-02
H  -0.8566059404E+00 -0.4929369746E+00 -0.2768997779E-01
           3
 Time step:          14
O  -0.2314016776E-01  0.1191580165E+00  0.2307565656E-01
H   0.8226017978E+00 -0.5021596982E+00 -0.1100659645E+00
H  -0.7061989439E+00 -0.4622330711E+00 -0.9872612803E-01
           3
 Time step:          14
O  -0.1788228264E-01  0.7810551846E-01  0.1879804117E-01
H   0.9071764108E+00 -0.4184433447E+00 -0.1007897593E+00
H  -0.8727613642E+00 -0.2754969268E+00 -0.6101115123E-01
           3
 Time step:          14
O  -0.2759643427E-01  0.1170777196E+00  0.1336921075E-01
H   0.9710334669E+00 -0.5117957253E+00 -0.8311598912E-01
H  -0.8402896461E+00 -0.3994261948E+00 -0.1343012199E-01
           3
 Time step:          14
O  -0.2233093942E-02  0.9701866920E-01  0.1132577120E-01
H   0.7368787034E+00 -0.3610471677E+00 -0.5338631403E-01
H  -0.7627346981E+00 -0.3320523218E+00 -0.2987672401E-01
           3
 Time step:          14
O   0.1891235645E-01  0.1084862499E+00  0.4018362962E-01
H   0.7260025628E+00 -0.5050277375E+00 -0.1279706378E+00
H  -0.9496634615E+00 -0.3505900850E+00 -0.2253353848E+00
           3
 Time step:          14
O  -0.2108117074E-01  0.1314734552E+00  0.8662136952E-02
H   0.8958040652E+00 -0.4420945793E+00  0.5295529927E-01
H  -0.7553300154E+00 -0.5629460535E+00 -0.4992070052E-01
           3
 Time step:          14
O  -0.1383679173E-01  0.1066071755E+00  0.1469623470E-01
H   0.7944871624E+00 -0.4492220794E+00  0.8080089905E-01
H  -0.7423644504E+00 -0.3832721469E+00 -0.1574803235E+00
           3
 Time step:          14
O   0.2490585680E-03  0.1270450001E+00  0.7100400308E-02
H   0.6947254950E+00 -0.6478568640E+00  0.4578764239E-01
H  -0.8389476021E+00 -0.3363195277E+00 -0.2696273556E-01
           3
 Time step:          14
O  -0.3471103034E-02  0.1088225625E+00  0.1827728148E-01
H   0.7492918317E+00 -0.4669950837E+00 -0.5255888699E-02
H  -0.8225134879E+00 -0.3729350616E+00 -0.1334347055E+00
           3
 Time step:          14
O   0.7005560343E-02  0.1245397255E+00  0.1092263904E-01
H   0.6572926129E+00 -0.5434952483E+00 -0.7140688592E-03
H  -0.8705747844E+00 -0.5023494155E+00 -0.3331968089E-01
           3
 Time step:          15
O  -0.2650814500E-01  0.1199231469E+00  0.2450563497E-01
H   0.8170561839E+00 -0.5017059662E+00 -0.1173877003E+00
H  -0.7208475928E+00 -0.4736424539E+00 -0.1058192760E+00
           3
 Time step:          15
O  -0.2156959906E-01  0.7570459438E-01  0.1970891840E-01
H   0.8994488260E+00 -0.4022001725E+00 -0.1054281639E+00
H  -0.8959640958E+00 -0.2902330464E+00 -0.6801580289E-01
           3
 Time step:          15
O  -0.3234869597E-01  0.1184071772E+00  0.1371701523E-01
H   0.9657709566E+00 -0.5051028572E+00 -0.8508823477E-01
H  -0.8683308607E+00 -0.4160901579E+00 -0.1963240905E-01
           3
 Time step:          15
O  -0.4276790676E-02  0.9697284034E-01  0.1136704879E-01
H   0.7184676341E+00 -0.3518969602E+00 -0.5232330730E-01
H  -0.7753419915E+00 -0.3441198496E+00 -0.3928792169E-01
           3
 Time step:          15