           3
Time step:                   1 Sim. Time [au]          10.00
O    -0.13425759E-04    0.11801755E+00   -0.68110138E-03
H     0.75722673E+00   -0.46652596E+00    0.46804074E-02
H    -0.75701364E+00   -0.47775261E+00    0.61300499E-02
           3
Time step:                   2 Sim. Time [au]          20.00
O    -0.35332687E-04    0.11798369E+00   -0.13616650E-02
H     0.75720443E+00   -0.46069877E+00    0.93573921E-02
H    -0.75664363E+00   -0.48304234E+00    0.12254988E-01
