           3
     Units: angs.;  Time step:           1  ;  Sim. Time [au]:          10.00
O     0.21242138E-03    0.11809837E+00   -0.79131621E-03
H     0.75656024E+00   -0.46600840E+00    0.60718711E-02
H    -0.75756110E+00   -0.47812917E+00    0.55339979E-02
           3
     Units: angs.;  Time step:           2  ;  Sim. Time [au]:          20.00
O     0.43967630E-03    0.11824696E+00   -0.14673891E-02
H     0.75475178E+00   -0.46104701E+00    0.12900313E-01
H    -0.75792387E+00   -0.48516140E+00    0.10717504E-01
