3
Units: a.u.;  Time step: 1
O   0.1677017027E-04  0.6177284374E-04 -0.1023875601E-03
H  -0.3484022135E-03  0.9842070438E-03  0.1065399840E-02
H  -0.1301242718E-03 -0.1366607695E-02  0.9354880128E-03
3
Units: a.u.;  Time step: 2
O   0.6687940888E-04  0.2849217738E-04 -0.1084377997E-03
H  -0.4118501723E-03  0.1022520745E-02  0.1418870290E-02
H  -0.2122179486E-03 -0.1099821990E-02  0.9424860771E-03
