           3
 Time step:           1
O  -0.3338455111E-05 -0.1541163201E-05 -0.1286587010E-03
H   0.1931576125E-04  0.1067811183E-02  0.8841454208E-03
H   0.3367227777E-04 -0.1043349804E-02  0.1157928545E-02
           3
 Time step:           2
O  -0.5725290724E-05 -0.1119373137E-04 -0.1285064305E-03
H  -0.2076792064E-04  0.1128978159E-02  0.8832751724E-03
H   0.1116398713E-03 -0.9513109887E-03  0.1156381953E-02
