           9
Time step:                3161 Sim. Time [au]       31610.00
C     0.20060790E+01   -0.21689378E+01   -0.84039150E+00
C     0.12833491E+01   -0.10991381E+01   -0.98541070E+00
C    -0.16952359E-01   -0.89518420E+00   -0.40925195E+00
C    -0.84999012E+00    0.11114441E-01    0.18418548E+00
S    -0.94179309E+00    0.17047539E+01    0.81625731E+00
H     0.18828267E+01   -0.27468681E+01   -0.10686911E-01
H     0.15770449E+01   -0.99870097E-01   -0.14337055E+01
H    -0.47833537E+00   -0.19178567E+01   -0.48378185E+00
H    -0.18504270E+01   -0.23558292E+00    0.40360252E+00
