           9
 Time step:        3161
C  -0.1363904411E-02  0.5181069197E-03  0.3399329882E-03
C   0.5616750082E-03  0.3849466369E-03 -0.5696939217E-03
C  -0.5691591486E-03 -0.6682617670E-03  0.2839584203E-04
C   0.1359483138E-02 -0.1094323219E-03 -0.9485750506E-04
S  -0.1244845854E-03  0.3718715703E-04 -0.3592933214E-04
H   0.1621987115E-02 -0.4568314154E-02  0.1490892958E-02
H   0.5469283694E-03  0.4366772982E-02  0.1569333390E-02
H   0.5906998561E-03 -0.5155288635E-03  0.2515360362E-02
H   0.1341547104E-02 -0.1959372442E-02 -0.9031422856E-03
