           6
     Units: angs.;  Time step:           1  ;  Sim. Time [au]:          20.67
C    -0.59676503E-02   -0.10456489E-02    0.33648846E-01
N    -0.89868780E-03   -0.39814384E-02    0.12845223E+01
H     0.10740365E+01    0.92457270E-01   -0.43342971E+00
H     0.90947726E+00   -0.65979878E-01    0.18960956E+01
H    -0.87490597E+00    0.11136291E+00    0.19319373E+01
H    -0.10256222E+01   -0.70554895E-01   -0.48943633E+00
           6
     Units: angs.;  Time step:           2  ;  Sim. Time [au]:          41.34
C    -0.54956045E-02    0.38253482E-02    0.29587614E-01
N     0.35558600E-02   -0.81607216E-02    0.12859539E+01
H     0.10159406E+01    0.69666284E-01   -0.42102798E+00
H     0.88968806E+00   -0.42759809E-01    0.18928178E+01
H    -0.90823589E+00    0.11985151E+00    0.19427377E+01
H    -0.98243085E+00   -0.79405571E-01   -0.48056288E+00
           6
     Units: angs.;  Time step:           3  ;  Sim. Time [au]:          62.01
C    -0.48266385E-02    0.87457355E-02    0.22309252E-01
N     0.75701370E-02   -0.12308562E-01    0.12909694E+01
H     0.95376675E+00    0.46085132E-01   -0.40996167E+00
H     0.86727868E+00   -0.18849443E-01    0.18864423E+01
H    -0.93381354E+00    0.12673793E+00    0.19471943E+01
H    -0.93652213E+00   -0.87579636E-01   -0.47237859E+00
           6
     Units: angs.;  Time step:           4  ;  Sim. Time [au]:          82.68
C    -0.40704634E-02    0.13761940E-01    0.12201883E-01
N     0.11144311E-01   -0.16425895E-01    0.12997370E+01
H     0.89279483E+00    0.21189101E-01   -0.40213366E+00
H     0.84219927E+00    0.62836650E-02    0.18742188E+01
H    -0.95210835E+00    0.13122006E+00    0.19444393E+01
H    -0.89135170E+00   -0.94822938E-01   -0.46632612E+00
           6
     Units: angs.;  Time step:           5  ;  Sim. Time [au]:         103.35
C    -0.35492501E-02    0.18945849E-01    0.12085730E-03
N     0.14094853E-01   -0.20517602E-01    0.13115487E+01
H     0.84107644E+00   -0.61213770E-02   -0.40113238E+00
H     0.81700755E+00    0.33712429E-01    0.18610851E+01
H    -0.96201006E+00    0.13226331E+00    0.19356431E+01
H    -0.85224999E+00   -0.10086295E+00   -0.46527829E+00
           6
     Units: angs.;  Time step:           6  ;  Sim. Time [au]:         124.02
C    -0.36574529E-02    0.24481076E-01   -0.12398439E-01
N     0.16316825E-01   -0.24633907E-01    0.13252613E+01
H     0.80790415E+00   -0.38001866E-01   -0.41109531E+00
H     0.79534333E+00    0.64856965E-01    0.18506985E+01
H    -0.96480794E+00    0.12917535E+00    0.19223258E+01
H    -0.82470169E+00   -0.10576191E+00   -0.47268441E+00
           6
     Units: angs.;  Time step:           7  ;  Sim. Time [au]:         144.69
C    -0.44410972E-02    0.30684822E-01   -0.24802496E-01
N     0.17629428E-01   -0.28824358E-01    0.13405005E+01
H     0.79817758E+00   -0.80351786E-01   -0.43394480E+00
H     0.78056549E+00    0.10382395E+00    0.18449611E+01
H    -0.96137272E+00    0.11840230E+00    0.19052862E+01
H    -0.81304854E+00   -0.10723984E+00   -0.49070239E+00
