5  1.0334850000000000E+002
 Cartesian Coordinates [au]
 -6.7071106004495500E-003  3.5802465165338679E-002  2.2838720690088535E-004
  2.6635411297774428E-002 -3.8772649308402518E-002  2.4784678343314863E+000
  1.5894041305976627E+000 -1.1567726167447438E-002 -7.5803033901975037E-001
  1.5439205222287107E+000  6.3707257743340157E-002  3.5169411336671965E+000
 -1.8179355452635924E+000  2.4994143337636610E-001  3.6578353064020317E+000
 -1.6105190757775585E+000 -1.9060334499527734E-001 -8.7924853716185725E-001
 Cartesian Velocities [au]
  1.8879733380516340E-005  4.8999818841173029E-004 -1.1245415070263269E-003
  2.3644839023844008E-004 -3.7520852384007107E-004  1.1667782733013330E-003
 -3.8805626871178571E-003 -2.7057653589553496E-003 -4.0965913476023432E-004
 -2.1419008175681542E-003  2.6775302977615260E-003 -1.0751711145462731E-003
 -5.8052971850513873E-004 -9.3468907567150820E-005 -1.0108618853071963E-003
  3.0467367482702977E-003 -5.0004765115940839E-004 -2.9065355266067844E-004
 Coefficients for SH
           3
E0=  9.4387928666356999E+001
  -6.0552358097416695E-006  -1.0288981596199815E-004
  0.20674466354575610       0.18901799748330200     
  0.95955801191469492       -2.7877443222500090E-002
 Cumulative averages of various estimators
 4.3120004054642835E-002
  0.0000000000000000E+000  0.0000000000000000E+000
 0.0000000000000000E+000
PRNG STATE (OPTIONAL)
271777204 500
0  0.0000000000000000E+000
 5.0163594851746041E-002
 8.9443469448250923E-001
 8.6575211793579854E-001
 2.6188331316306801E-001
 7.8558899921278424E-001
 7.4244227532925322E-001
 4.6630080215759406E-001
 7.9843414301421589E-001
 5.9702541981710766E-002
 3.6355278301824612E-001
 1.1469956721459695E-001
 4.4999953555799266E-001
 2.8803165288218580E-001
 5.0821931312718505E-001
 7.0657030939381471E-001
 8.5171153284139223E-001
 7.1919755429630072E-001
 4.2129642563751091E-001
 6.2275307223916343E-001
 9.9781230629098516E-001
 4.7645835787468727E-001
 2.7688612769536647E-001
 8.5176309015634288E-001
 7.4798454802040482E-001
 2.9771362093413245E-002
 8.6773052691133401E-001
 9.5713340148174098E-001
 2.9124132381295098E-001
 8.3469223243080748E-001
 9.9766573173281614E-001
 8.1808110524910660E-002
 5.6517128786295245E-001
 6.0087162190790266E-001
 5.3250794639915355E-001
 4.3635481400583487E-001
 9.3813463352256932E-001
 6.4271787486353915E-001
 5.2580578996857952E-001
 8.8400355329554614E-001
 3.0676854240535434E-001
 3.8611325692203735E-001
 9.3043005969924408E-001
 1.3825126386353759E-001
 5.8395243243261064E-003
 9.0803612327167116E-001
 4.4903035330228747E-001
 2.7714086112825953E-001
 9.3799386214217151E-001
 2.8257041158901686E-001
 7.2304242387573936E-002
 5.4845540897880696E-001
 6.8891012457604006E-001
 5.6749505358649088E-001
 8.7538393062260056E-001
 2.4220881408676220E-001
 7.1899606104463132E-001
 4.8128991694868617E-001
 5.8782077115522213E-001
 8.6574529407042888E-001
 7.8371819354281413E-001
 7.6724205752278252E-001
 1.8713022570346638E-001
 8.1212628157878797E-001
 4.6933125551845478E-002
 5.2416701911099395E-001
 2.9932539564312677E-001
 7.1038886164856407E-001
 2.5863365513587411E-001
 8.6357054538995470E-001
 1.9854804337572673E-001
 7.2635640130289758E-001
 3.6710711179382116E-001
 2.5460330837557876E-001
 3.2329402769183702E-001
 4.8336812872585000E-001
 4.1232255505561000E-001
 8.4083472007121784E-001
 7.1453920013754413E-001
 9.1430468492978889E-001
 8.9501118339292063E-001
 2.3606217246260286E-001
 3.7748999358095148E-001
 5.4450194722391387E-001
 4.7158477736376980E-001
 5.5740401060245759E-001
 3.8674689311799071E-001
 6.0648024719079530E-001
 1.0303557400217045E-001
 2.6438847753243522E-001
 7.8043791351653624E-002
 1.9937908378400238E-001
 3.0396488406451994E-001
 1.5443894480482712E-001
 1.9626656795724173E-001
 6.3796177182516800E-001
 2.7844011684653580E-001
 4.1482128365856852E-002
 9.0145779440497265E-001
 1.7287931182061556E-001
 4.4049509182113056E-001
 5.9229563313023448E-001
 7.9959771256538659E-001
 3.3545184070846190E-001
 7.4716632338776634E-001
 1.1586471996002246E-001
 6.1724220735183266E-001
 9.2685466827229845E-001
 1.7543728934717961E-001
 7.7119991943616384E-001
 7.4972717580548220E-001
 6.7169150290880353E-001
 5.7370562377334267E-001
 2.8143803031646542E-001
 9.3435548017471248E-001
 5.8405884367329364E-001
 3.5213390219107765E-001
 5.1266009796139400E-001
 5.4276323060016551E-001
 1.9347223286537485E-002
 2.1162372561780884E-001
 8.2836775436616961E-001
 9.8642824605779467E-001
 2.0654535844369093E-001
 6.0375700944822341E-001
 7.0716786865747494E-001
 1.6627297841308319E-001
 9.6717640115551973E-001
 8.1779354642370095E-001
 1.1943340732013752E-002
 1.7220802468033014E-001
 8.2519845957722993E-002
 8.5361815099691185E-001
 7.8118886497453843E-001
 6.4337850334467461E-001
 4.3978586026431188E-001
 8.9216458281548228E-001
 1.3554771340373861E-001
 2.7058114351810048E-002
 8.7079599150937881E-001
 5.7255047128553826E-001
 1.2881491152580082E-001
 6.4842699621920374E-001
 2.9834176010130165E-001
 7.8857149314355723E-002
 9.2513087863698473E-001
 6.4651235267046303E-002
 4.8785164169067841E-001
 4.2044885974684121E-001
 4.5641695923908543E-001
 6.5308832216240376E-001
 2.4048853650146285E-001
 9.1044046618621266E-001
 9.4462719823354391E-001
 3.7892893022803520E-002
 8.9386496055919551E-001
 5.0393885288386286E-002
 8.5032430781789259E-001
 2.5931785141184349E-001
 4.7732618232848267E-001
 6.7491717335909840E-001
 1.3787450309949634E-001
 5.9262715597804316E-001
 9.2475988042012247E-001
 1.6543537216056237E-001
 3.1011168571244951E-001
 3.9091279064819773E-001
 2.5206650290655830E-001
 6.2961410004939822E-001
 5.1350016074511018E-001
 4.9003048532554061E-001
 5.0926693911200616E-001
 2.2747788713191497E-001
 5.9428611790174202E-001
 5.1457802748730330E-001
 8.7669112494790724E-001
 5.7037903389591804E-002
 7.5381103811485417E-001
 5.0412480687254302E-001
 6.4070335704225911E-001
 2.5750339802399580E-001
 9.3727031891604540E-001
 1.8506542778112589E-002
 9.6019091966429926E-001
 5.4279028169067089E-001
 5.1479919930326545E-001
 3.6294428283556002E-001
 2.7779037325118239E-001
 6.6142602272205409E-001
 4.4676418804112927E-001
 8.6783369517821285E-002
 4.7549125193953046E-002
 8.8728868819715245E-001
 9.5214719330172670E-001
 9.6325701942030051E-001
 4.1459755721792746E-001
 1.2429037969341650E-001
 5.3907008249003496E-001
 5.6920066685496096E-001
 5.1532781024859275E-001
 9.3356216953677418E-001
 5.3932649878611372E-001
 3.3171985295343376E-001
 8.0318055442514336E-001
 4.5873067553046809E-001
 7.9301168994874160E-003
 7.6000085353374303E-001
 5.5769871269751903E-001
 2.6025163382215766E-001
 1.4268247536449863E-001
 2.1340753557822367E-001
 3.6397787267042148E-001
 9.0727726063920500E-001
 7.8377583748552127E-001
 2.0519628784785482E-001
 5.3140629838066999E-001
 1.5805372743777468E-001
 9.4295815078938006E-001
 2.7633119930391103E-001
 1.8061183023462135E-001
 2.8277285856269430E-002
 8.7039469402881764E-001
 1.3940581066330182E-001
 8.8953711151098602E-001
 7.4656159639468100E-001
 9.2814632374217609E-001
 9.8214244449611243E-002
 8.9232708879023548E-001
 2.4979777574794326E-001
 9.1106019478931799E-001
 5.1788098121069481E-001
 7.7829531104529792E-001
 6.5849077339308337E-001
 3.0695988070450042E-001
 7.0922273476598363E-001
 3.2739825518167009E-001
 3.0787888374959493E-001
 1.5483504695745509E-001
 4.9192411628509092E-001
 8.8509127105353969E-002
 4.4737160385919594E-001
 3.2561410578793826E-001
 8.7479742894543122E-001
 2.0260355906395588E-001
 9.8495100566420035E-001
 8.9172211231143805E-001
 9.8204740605759611E-001
 5.0651530255152011E-001
 6.0658890411025723E-001
 5.7905862274444075E-001
 6.5303119856912772E-001
 3.2375217034413240E-001
 5.4413654721178517E-001
 4.4026855130175946E-001
 2.9131240802339420E-002
 9.9934316157725789E-001
 4.6771739187511585E-001
 5.0981992749541760E-001
 4.7218451102380499E-001
 4.5834108410461027E-001
 1.4963204043800715E-001
 5.3778376502695124E-001
 8.5191147683948287E-001
 7.3436927335780311E-001
 9.4152935747043998E-001
 9.4492308936457547E-001
 9.2912722213427656E-001
 2.1200158842022887E-001
 9.6373616932039852E-001
 7.1568359247946134E-001
 9.0065099249068581E-001
 5.0403736744885919E-001
 4.6578644740904096E-001
 4.8640857439422547E-001
 8.1816232018714175E-001
 9.4109866755512428E-001
 1.2029966648173129E-001
 1.8468877333866374E-002
 3.4348181582118542E-001
 5.7713618135449707E-001
 9.2047607237134343E-001
 1.1622521906555150E-001
 5.9166218372947554E-001
 2.2471595399292355E-001
 6.9628606053669628E-001
 7.6541303522293447E-001
 5.9918801029344593E-001
 2.7404555885901161E-001
 8.1084594137683297E-001
 4.4495567598049490E-001
 1.6628643324778025E-001
 2.8152546789815247E-001
 4.9313565032084483E-001
 6.6566651763027096E-001
 6.3311360013585016E-001
 1.7052293283994402E-001
 6.6596264517652060E-001
 6.2200315522160921E-001
 5.0578024035990765E-001
 6.2658945586118620E-002
 6.2751336595666629E-001
 1.9896040363940770E-001
 9.8086737691952663E-001
 9.1782556686290206E-001
 7.7885225633190558E-001
 4.5196129164714804E-001
 5.2591711000021846E-001
 6.4744449306777696E-001
 3.3955905193898772E-001
 2.4081749011232390E-001
 6.5502838482613512E-001
 1.1180579320250672E-001
 1.2713645985807887E-001
 9.6725647560980121E-002
 5.4688138762394800E-001
 5.2189595401972610E-001
 6.8216097895671624E-002
 8.4384267096152499E-001
 5.4742564048056508E-001
 9.9683440612326635E-001
 9.1153271137162406E-001
 7.6413465931461033E-001
 8.4042283114982297E-001
 3.0828743204201103E-001
 9.6811692395859339E-001
 1.1657672072565362E-001
 2.3347329103490466E-002
 8.8951023786882644E-001
 7.9223548879267014E-001
 3.4351674288129885E-001
 9.1423688191780528E-001
 2.3110808820702644E-001
 5.8847961986703723E-002
 2.5087859884343189E-001
 8.3205381182139604E-001
 7.2088129324231431E-001
 1.8232217190510980E-001
 8.4217506799572917E-001
 1.5158725269483142E-002
 9.1551743887806225E-001
 1.5436417305025074E-001
 7.1458341291003791E-001
 2.3246879324766212E-002
 3.7110030810555017E-001
 1.0920230470664549E-001
 2.4413130669602268E-001
 5.5672465325724474E-001
 1.9251696750660230E-001
 6.0443679469380385E-001
 8.3461934881079358E-001
 8.5922472508536885E-001
 4.2267570596365545E-001
 1.7876416379289140E-001
 1.6611350121527124E-001
 2.3676747535311549E-001
 1.5083781014996234E-001
 6.2816585571242811E-001
 6.4448152950589588E-001
 4.6079014380652339E-001
 2.2677874192058312E-001
 7.9724509108910624E-001
 5.3700424723026430E-001
 8.8960770469245176E-001
 7.1066606605151250E-001
 3.8869184025470815E-001
 2.7436845456383452E-001
 5.6446285094633097E-001
 1.5234702688520230E-002
 9.3166400221043943E-002
 9.4180944796800503E-001
 3.6915692906775988E-001
 5.0993487844143459E-001
 2.6275569602179161E-001
 8.3621067646371117E-001
 2.3441592887089868E-001
 9.9444572810369891E-001
 2.0566200720119099E-001
 5.1493149324596388E-001
 1.5124237280176800E-001
 3.5533180318790158E-001
 4.2595997487036286E-001
 3.0006427261399793E-001
 1.6367184785583433E-001
 7.5942928206375981E-001
 2.2970081750074911E-001
 1.3527572805461574E-002
 4.8985145969787425E-002
 1.8506739994575483E-001
 8.9988677370217829E-001
 5.1042808354925029E-001
 8.6299381297006050E-001
 2.7138836318960813E-001
 4.3263914791376124E-001
 9.2313798720064000E-001
 3.4023370309193268E-001
 2.5376383191598961E-001
 7.5113712505410035E-001
 7.8984344424484476E-001
 3.6258644831240616E-001
 9.3116526745659911E-001
 8.3120779599302352E-001
 4.0068980626475792E-001
 4.7050706371792828E-001
 2.1144779527005753E-001
 3.7188173880348785E-001
 4.0048453302793874E-001
 1.6582681252569387E-001
 7.7566065935641859E-002
 5.7197928597452830E-001
 2.2618374947999698E-001
 6.1298565366259083E-001
 7.9205290381828064E-001
 2.5190971328153466E-001
 4.7700132717859844E-001
 7.4119442709944394E-001
 1.5253503890925302E-001
 1.1604219200584254E-001
 9.6938486185275607E-001
 2.0796411228424105E-001
 9.3101553886263844E-002
 1.7979152647270524E-001
 5.9603099801688941E-001
 9.9171164498524078E-001
 7.8133576370904834E-001
 7.2251463557059026E-002
 4.8368409675039103E-001
 2.7319963188311647E-002
 8.4031031311581472E-001
 8.7858541441529781E-001
 8.1009554351084034E-002
 3.7078887764293356E-001
 5.9526949615771585E-001
 4.4939391573799625E-001
 5.2040058515104803E-001
 6.8148097146130482E-001
 5.4320055126034816E-001
 5.6076708217774396E-001
 1.6370458367942575E-001
 3.2772279249610037E-001
 7.7746102473017231E-001
 1.3221285956887385E-001
 7.3791238387753566E-001
 3.9832492931292407E-001
 8.8028510526229198E-001
 2.9564215263641813E-001
 6.6913810025421938E-001
 9.8414832879443992E-001
 9.0400745548195260E-001
 1.6044398540611482E-001
 6.0654446603800594E-001
 5.8267887226642756E-001
 2.8604815290481866E-002
 7.7496412736371667E-001
 3.8090785711134245E-001
 2.9465990958385646E-002
 1.0374369256697236E-001
 7.0347038138128681E-001
 7.3246205722766078E-001
 3.3827943691348139E-001
 8.6700003035969075E-001
 2.9631365392534548E-001
 9.2882860717469740E-001
 3.6144613245047097E-001
 2.7009428285439085E-001
 9.6146240413987627E-001
 6.2128390712533133E-001
 1.5718683181428261E-001
 8.0321985203758928E-001
 1.2923756829498600E-001
 2.3949434231248290E-002
 5.8408836650005824E-001
 6.1289395288812187E-001
 4.8638354911727433E-001
 8.0281655943199581E-001
 2.8586740646485964E-001
 5.2150368062007502E-001
 2.4486541610946944E-001
 8.6362067332460057E-001
 6.2525188337769322E-001
 7.8170848431628315E-001
 3.3740358939684612E-001
 3.9058753770143184E-001
 1.3961742424671897E-001
 8.9902029584596832E-001
 5.1971019828904730E-002
 1.6239331259391321E-001
 1.0268270757398668E-001
 1.7354970510378465E-001
 9.9054063629771960E-001
 4.8804571951513864E-001
 9.3670619087370000E-001
 7.9214310628568896E-001
 4.2940845054154408E-002
 4.4927910772910806E-001
 7.7240302506939074E-001
 5.9356303033838387E-001
 1.3460251444159610E-001
 7.5118793098272718E-001
 1.1553553867793198E-001
 7.8405543151903601E-001
 2.6227386458772628E-001
 1.0907203923803621E-002
 2.8302048497691601E-001
 3.8495380833409598E-001
 3.6972163880551534E-001
 2.8269973477160448E-001
 1.6075508649159787E-001
 6.6879559291110269E-001
 6.7182142391260413E-002
 5.8818059746281648E-001
 7.7677054838273207E-001
 7.6473387546749905E-001
 1.9166748181296711E-001
 6.4127996959490119E-001
 2.6006847276627454E-001
 8.8798416053298368E-001
 1.6092457143539107E-001
 4.4408799457489678E-001
 9.8138311445371684E-001
 6.9961291013293447E-001
 1.7448700839290865E-001
 4.0979119069659475E-001
 6.7297050836198480E-001
 3.9906134039820529E-001
 9.6838237065267663E-001
 7.6462499819210805E-001
 1.5570623666620520E-001
 8.9392084975947839E-001
 3.6666203439349232E-001
 1.4423461143744731E-001
 5.0086935661212806E-001
 4.4407557697212496E-004
 6.2488702938566121E-002
 6.9473515760905968E-001
 7.4392375377605546E-001
 8.9567912415725814E-001
 6.3285826076310414E-001
 9.4186343000389527E-001
 2.5963803781429462E-001
 6.4917098759534042E-001
 9.6990584884215281E-001
 6.7630297875042444E-001
 6.2015362826060283E-001
 2.3544682191063160E-001
 7.9679474445032028E-001
 5.5159522255592819E-001
 8.4779685501675672E-001
 3.9665432740989459E-001
 7.1863353761616722E-001
 4.0735230877136175E-001
 6.6854680005991440E-001
 9.1357067142775605E-001
 5.1423956780269009E-002
 1.1231926575617379E-001
 9.0410804226443986E-003
 6.3347885963462502E-001
 5.8114664547787953E-001
 9.0745648403970236E-001
 3.4567176880608130E-001
 9.0449289421188084E-001
 8.7259201822573829E-001
 6.0582489952693663E-001
 6.1783459066774071E-002
 5.6360545161483344E-001
 3.5556767805790201E-002
 2.5765592660214054E-002
 3.9921611775139354E-001
 4.3041498080224372E-001
 6.2255790523065002E-001
 9.4511845185177279E-001
 5.7060330465021991E-001
 8.0163629032319150E-001
 8.7117266315119579E-001
 4.0457558935843707E-001
 1.3009160907556705E-001
 7.9755726830016727E-001
 2.6120490506136562E-001
 2.4139544567377413E-001
 3.4266887849216943E-001
 3.9457866350963755E-001
 4.6403690055279156E-001
 2.4095021112316317E-001
 2.9854430426367173E-001
 3.4867926334229793E-001
 6.0101953610590186E-001
 4.5576747154415642E-001
 6.1335788073241915E-001
 7.1985406039087607E-001
 2.7989147985175578E-001
 7.1406705706370488E-001
 9.5405368792946277E-001
 9.6109469616655119E-001
 3.4104833572430593E-001
 8.6572747986422272E-001
 2.9123730615813415E-001
 8.2656665105587379E-001
 3.1344095404591954E-001
 6.3166694319479078E-001
 1.9406263184769301E-001
 4.0199052738939400E-001
 1.2340516644147925E-002
 8.1475522053293048E-001
 6.5699134900594558E-001
 1.9909513951818880E-001
 8.0342633039430922E-001
 3.3418046339409457E-001
 8.0864825414966646E-001
 8.7561668402730319E-001
 7.4169786465027343E-001
 5.0707216934182497E-001
 8.2817866509038396E-001
 9.6863511571960714E-002
 1.6680601362319081E-001
 5.0359137846972857E-001
 7.3191897910186654E-001
 4.5993110494343270E-001
 2.1181544494083582E-001
 4.2398297465933865E-001
 5.6695517161698561E-001
 1.0622232416688249E-001
 9.4458725120103537E-001
 9.5128292206384657E-001
 7.7242699275225490E-001
 3.8944116865687661E-001
 1.5358594351800647E-001
 4.1486870544289545E-001
 9.8891757909819944E-001
 1.4293370004587302E-001
 7.3283873882677852E-001
 8.2793477840759166E-001
 9.2332449276159778E-001
 5.0234112701690492E-001
 8.5882691530278166E-001
 7.3636984736230104E-001
 5.3650456313906858E-002
 2.4508715806163650E-002
 3.6244335718701848E-001
 9.1641422291849750E-001
 9.3935845704848475E-002
 7.2942734945594268E-001
 9.9845509605386340E-001
 9.4578955752837146E-001
 9.7832641966950362E-001
 9.6447959047355170E-001
 6.1367578018799662E-001
 7.1985208193533978E-001
 2.6834081877357363E-001
 3.0698703666843485E-001
 9.7506910717618567E-001
 2.6826127458750193E-001
 4.8045998530577450E-001
 2.7268446381629730E-002
 5.6014530172460653E-001
 8.9006211067241026E-001
 3.6370936242517615E-001
 3.3279523542791623E-002
 5.5378648942816966E-001
 4.7827125995197051E-001
 7.3749087941731872E-001
 7.7980587025978565E-001
 5.3522356421927597E-001
 2.8149435335574680E-002
 2.5059306854362973E-001
 6.8982024796419950E-001
 7.4773804700264535E-001
 6.9001627698663270E-001
 3.6043729339287367E-001
 3.7493764454614364E-001
 8.3518518659282037E-001
 8.5603780940245500E-001
 7.2953667769473896E-001
 5.5903564802238037E-001
 3.6528098831567846E-001
 9.8323401944336908E-001
 3.0612583830580675E-001
 9.9042740637240101E-001
 3.3057803485647952E-001
 9.0480132934128932E-002
 5.3912902100010740E-001
 7.6423253725148754E-001
 1.2692655513506068E-001
 7.9696775493782823E-001
 9.8647236758283086E-001
 1.8878606465833769E-001
 4.1924326092807362E-001
 4.4441109164582571E-001
 5.8714197991778150E-001
 5.2091681090390551E-001
 6.9820609514155763E-001
 3.1273906729720835E-001
 6.4455474445497885E-001
 6.2284303778633898E-001
 8.1827786566908145E-001
 1.6179752730670671E-001
 3.9697654553996387E-001
 1.2409114387598308E-001
 7.0989006907879570E-001
 5.2178021828898125E-001
 8.9131268042630651E-001
 7.5333307902562296E-001
 1.8225427033157615E-001
 7.5780330139150820E-001
 6.7052141714793123E-001
 9.4083651519738964E-001
 1.0863275739790268E-001
 1.0572351150933201E-001
 1.0102819319065759E-002
 5.6298590222768752E-001
 4.0406200622312483E-001
 2.5044816019025617E-001
 5.5992055038112909E-001
 2.4966398696517089E-001
 5.9931406239058305E-001
 6.2315706529435388E-001
 3.4873664630218926E-001
 7.3481573488767893E-001
 1.5636450465934715E-001
 9.4889496696735520E-001
 5.6111964541802806E-001
 1.1928253432390790E-001
 8.2143296865369919E-001
 9.7896468057696495E-001
 2.9521744690348228E-001
 9.7942037867045784E-001
 5.1419755153332147E-001
 2.6330585537099793E-001
 4.1677651878933020E-001
 6.7044938301954460E-003
 5.8719797590878642E-002
 7.5608752145757663E-001
 1.8364025527518280E-001
 4.5697413668992226E-001
 5.7737082702205456E-001
 8.4879535988771693E-001
 5.7025229202301020E-001
 1.1347099616110867E-001
 6.1997239930538584E-001
 1.0201703490993452E-001
 5.5641639568862900E-001
 1.8112488553677153E-001
 9.7931555052588237E-001
 2.3852499485631640E-001
 8.6566439568677112E-001
 2.9180252065317447E-001
 3.2539659669297194E-001
 3.9418364240177084E-001
 2.5073416027007767E-001
 8.3315862853037714E-002
 9.8915973263699897E-001
 7.4039719477383414E-003
 1.6161528859477414E-003
 7.6874580476717114E-001
 5.8841331311928968E-001
 8.4020622539987500E-001
 2.6618833596543112E-001
 6.6491039112788997E-001
 7.4979036108274855E-001
 5.0377895934321515E-002
 4.3566209633655362E-001
 5.3680557338196166E-001
 5.9200127193555119E-001
 8.2746270630298113E-001
 9.7535419432969661E-001
 4.3527512610939922E-001
 5.7837655485970529E-001
 2.6512793739478013E-001
 2.6012922511931080E-001
 6.0437004402043826E-001
 1.1415747355150785E-001
 9.1393303137072834E-001
 9.1823607570418275E-001
 1.4935428367499881E-001
 6.2724821807836051E-001
 4.2962022649886933E-001
 2.3670352687394214E-001
 2.1110559247866334E-001
 1.1406295516320597E-001
 1.5942974148124023E-001
 8.6794921332036878E-001
 4.2343222683985715E-002
 7.1770361429407004E-001
 2.8410375292581946E-001
 4.2001108552383926E-001
 4.5552464071875676E-001
 9.7394742713971993E-001
 2.2315985291339757E-001
 1.5464665484163831E-001
 3.5243359150672049E-001
 7.7145626239349596E-001
 2.3317245751385585E-001
 5.1217107906499137E-002
 7.9813942448646458E-001
 1.4464145278204654E-001
 7.9012415786393220E-001
 8.5231492771482920E-001
 1.0653067110361647E-001
 9.0900660430064661E-001
 5.4663221614275770E-001
 7.3905603240022089E-001
 6.2917385844922791E-001
 2.5978157163378057E-001
 4.7007927974597052E-001
 6.8875701162883018E-001
 3.2348600356133161E-001
 5.3094922280074996E-001
 2.5553569995993897E-001
 5.4242063589028788E-001
 1.6651529515788610E-001
 2.1600746274961224E-001
 3.4942898063924588E-001
 8.3777223888527175E-001
 8.1877522205019559E-001
 9.7623267653857937E-001
 9.3760984512637435E-001
 3.6640447342722027E-001
 4.0083155054693975E-001
 5.8339595304419589E-001
 8.5088036415273649E-001
 7.7861754371566505E-001
 3.3074040544611449E-001
 5.7464556896952246E-001
 7.5524432713541501E-001
 3.9843247873627163E-001
 2.5204601596154319E-001
 6.1306346873849193E-001
 2.1996832233016406E-001
 7.8634527397611720E-001
 6.8389318244893360E-002
 1.4766243134239687E-002
 5.0881931523626633E-002
 3.4390638322922484E-001
 6.9176651182222670E-001
 1.8745416198696319E-001
 8.5541215072272081E-002
 7.6822561715196613E-001
 6.7182566304686020E-001
 9.6780718791589493E-001
 7.9866237101140314E-001
 6.2797382954894587E-001
 4.0993816671333860E-001
 7.0795692662935039E-001
 7.5006705729204270E-001
 6.7941842776673056E-001
 1.6979295854487120E-001
 7.8373130744902042E-001
 3.0269643350419173E-001
 5.6143777792199856E-001
 3.3523570097097632E-001
 6.6663189420135893E-001
 6.2541812512572648E-001
 1.8863633587704598E-001
 5.2584364649845483E-001
 2.0881762406590099E-001
 1.3774849991954241E-001
 1.3465309228105227E-001
 7.0178565776987512E-001
 9.1394860238131059E-001
 4.2558490527177639E-001
 6.0510714958379808E-001
 3.3636415292306410E-001
 5.8545078459949096E-001
 6.1673447864625786E-001
 6.3899437907291912E-002
 8.8524290239011805E-001
 9.1977802757192961E-001
 6.8464341533573503E-002
 1.4032317568300812E-002
 2.2865531145358986E-001
 2.9572957261828492E-001
 8.6970463795637798E-001
 9.4503921472825780E-001
 5.8807123590830201E-001
 5.6616260020504683E-001
 8.5018646446183865E-001
 5.3976592276931967E-002
 9.2844823962925460E-001
 7.7942220251005878E-001
 6.2472611298477077E-001
 2.9395078416593634E-001
 6.2502222404111407E-001
 1.0303220962609316E-001
 8.1775847823777070E-001
 6.1741315779635286E-001
 7.0205711579902541E-001
 8.4759529334184691E-001
 9.1793059581888770E-001
 5.2260012954295831E-002
 6.9770611057998977E-001
 7.1292631388764960E-001
 6.8650759465558764E-001
 3.3223466003354218E-001
 4.8635469983523905E-001
 1.3544615294222240E-002
 2.8251799256312182E-001
 3.0191423898049763E-001
 7.6725983202048909E-001
 3.6447821026935046E-001
 6.0983347334960669E-001
 9.0268336536891169E-001
 2.8145949978751617E-001
 6.9847009810683858E-001
 2.3669855666635797E-001
 5.0788766694280696E-001
 5.5859457737108187E-001
 3.7266497843744162E-001
 1.8844434046664560E-001
 8.5316637249149352E-001
 8.9911553445009673E-002
 5.0769535851962999E-001
 9.3221728717027119E-001
 1.3685404533330825E-001
 2.3207914286133757E-001
 2.4664843019877480E-002
 4.6944524463978610E-001
 1.9431721569761251E-001
 3.7131320384101585E-001
 7.4413436733563287E-001
 8.8362492563151918E-001
 2.4926885827550294E-001
 2.6052965017785823E-001
 5.5511372805943182E-001
 8.0954079573011839E-001
 9.1565697294289095E-002
 2.6379433141904940E-001
 5.2221044992930032E-001
 2.6510854846240051E-002
 4.2959758893473321E-001
 2.2048315076238012E-001
 3.0173819534080693E-001
 9.2958101849319519E-002
 5.2816757960585292E-001
 9.3647842460405073E-001
 7.3719499185990855E-001
 9.6032436057306825E-002
 6.6787447829107549E-001
 5.5479260679956965E-001
 9.0305973464008105E-001
 9.7004261113744050E-001
 6.4890597490776969E-002
 2.4385959953184155E-001
 7.7367514237805679E-001
 5.5487252811341747E-001
 4.9873026940104026E-001
 3.4789428648151244E-001
 9.2334489803837272E-001
 9.3439537479532220E-001
 6.6242529813989748E-001
 9.5144172669668237E-001
 3.2705855833225783E-001
 2.1185710459347362E-001
 5.5566537589225717E-001
 2.5963202608451397E-001
 7.5373804187986337E-001
 2.4959219524566123E-001
 5.6272024988531655E-001
 1.1862585070733900E-001
 4.3833095502349906E-001
 9.0563779446879167E-001
 8.0951688692907808E-001
 4.0161188800545489E-001
 9.7663137193455540E-001
 3.0825403449660271E-001
 1.4478253487101966E-001
 2.4453542793731131E-001
 5.3401897323086089E-001
 2.1810859188042642E-001
 2.9332452904026596E-001
 7.3808477899753910E-001
 9.7624298825783740E-001
 8.7468682962675715E-001
 7.4555075803860404E-001
 1.0902136896560677E-001
 2.1020688446768077E-001
 1.0773841632691727E-001
 9.6680459764762716E-001
 2.8475409208026292E-001
 9.6999276339291995E-001
 2.1502717571745933E-002
 9.2671764940702062E-001
 9.9153401709568811E-001
 8.3906402923695467E-001
 4.4262352343057998E-001
 5.7701615794669792E-001
 2.8239190101491118E-001
 6.0495390046855491E-001
 2.8713220559276209E-001
 5.6946562603450346E-001
 1.9614102247531306E-001
 4.7403995245802832E-001
 2.5918048778468616E-001
 3.5722602720100483E-001
 3.3454948643522187E-001
 5.1877019878693531E-001
 1.3406557077761505E-002
 6.7109988763598238E-001
 2.8633327118722818E-001
 1.5892140019947121E-001
 1.2233948244350756E-001
 5.5695647012076677E-001
 9.0369962481200972E-001
 3.4235786398672374E-001
 9.0557319398927660E-001
 5.6796246026739539E-001
 8.4461884981613977E-001
 2.7827422186973649E-002
 2.3184702218372522E-001
 1.0817545995556443E-001
 2.9329557688097196E-002
 6.5940772577726392E-001
 2.8604169776631849E-001
 8.2595157930860807E-001
 9.1677105640514966E-001
 7.6546673457420056E-001
 6.2012627370963358E-001
 2.7684661398683730E-001
 7.8195924178493215E-001
 6.6338651165638041E-001
 7.1072129074210011E-002
 7.5898250095205100E-001
 2.1821150998820116E-001
 8.3330162900437799E-001
 1.5080224124472252E-001
 6.4544184584513431E-001
 3.0005553431725929E-001
 2.9296743484275467E-001
 4.1717419110004172E-001
 5.2707903526233579E-001
 5.4004885575955797E-001
 4.4799344927726281E-001
 3.1533324952981445E-001
 6.5884522158526337E-001
 2.9686407814932281E-001
 3.3102517705051326E-001
 7.8979048048552869E-001
 1.7952287909931286E-001
 5.2681851288028270E-002
 9.7101797152184943E-001
 1.2429804183105020E-001
 1.2056871597129870E-001
 5.5778855003555350E-001
 4.2932903606606843E-001
 9.0312024110945188E-001
 5.7568102511893926E-001
 6.3493018917761646E-001
 4.9910253241138136E-001
 8.4255369792798618E-001
 4.8209291865554960E-001
 6.9252569044621737E-002
 4.9888308062553932E-001
 7.0261360428009922E-001
 2.2274957229116055E-001
 2.5491919878930958E-002
 7.8358283235848702E-001
 6.3417579750617037E-001
 9.3162837974847434E-001
 7.9499804502914273E-001
 5.0989214647130154E-001
 2.6095240509950557E-001
 8.9843014524724296E-001
 9.3824853067102154E-001
 4.0341581618178068E-001
 9.9957938674907965E-001
 8.1421487478029064E-001
 4.0556682171137126E-001
 8.2788885344484697E-001
 1.1498331180538557E-001
 2.1016052728346324E-001
 5.5738849374206723E-001
 6.6720406543561595E-001
 6.2966114701368880E-001
 6.2698414372652422E-001
 1.9849300354105637E-001
 1.1398342621627222E-001
 7.4476418684032097E-002
 9.7250237331597944E-001
 5.8143584495702783E-001
 9.2097953534436527E-001
 4.4537819656157751E-001
 1.1069841091797628E-001
 7.0134468002554229E-001
 6.5680435414520488E-001
 8.4000941996879774E-001
 8.7258122201132693E-001
 8.0257390604073109E-001
 5.9012805994231599E-001
 1.0624884574536253E-002
 3.1141721799570377E-001
 6.1222557324145654E-001
 5.9455658474826834E-001
 6.5650001638262268E-001
 2.8655438592722504E-001
 9.6165121119100050E-001
 7.4888712768103716E-002
 9.0534049272551442E-001
 8.9702843179001945E-001
 6.8677775876352598E-002
 7.9770866810466856E-001
 5.8636336661873401E-001
 7.9851942264414788E-001
 8.6708427461253379E-001
 3.1518724824440625E-001
 3.3027706030879500E-001
 8.1951162166904723E-001
 7.8610028599430137E-001
 8.6424480765444756E-001
 2.1508892263961243E-001
 5.1228874773536859E-001
 5.4820338886663933E-002
 2.0460787406185688E-001
 5.8654261480490533E-001
 9.0954010088169568E-001
 1.6148497024818909E-002
 5.9512298939364072E-001
 3.9596722183766175E-001
 7.0146318696151511E-001
 8.2377414543643113E-002
 7.3327949891424993E-002
 1.5208576051565004E-001
 4.9717741507610214E-002
 2.5261424975319358E-002
 6.4438577177245548E-002
 2.9744560386137664E-001
 4.4288056366930206E-001
 9.8213602238490338E-001
 2.0179514357609918E-001
 7.1691426474199460E-002
 4.0243468919292980E-002
 1.8950923063815850E-002
 7.3836118566761044E-001
 9.5372184933614790E-001
 6.0741329354623730E-001
 6.8037448824534152E-001
 6.6232910698532166E-001
 9.1142616941407084E-001
 3.3589279303986075E-001
 1.7428800855513416E-001
 3.8899513104681915E-001
 4.1344411620185539E-001
 6.2318596836718498E-001
 7.3296915481971681E-001
 9.9052412717202287E-001
 9.0930984645318347E-002
 6.9442837181933825E-001
 1.9814781425685624E-001