           3
Time step:                   1 Sim. Time [au]          10.00
O     0.52015746E-03    0.11837577E+00   -0.16844107E-03
H     0.74816001E+00   -0.47248526E+00   -0.76314048E-04
H    -0.75380333E+00   -0.47749191E+00    0.42250215E-04
           3
Time step:                   1 Sim. Time [au]          10.00
O    -0.20113222E-03    0.11816262E+00   -0.57551189E-03
H     0.75513463E+00   -0.47337580E+00   -0.91414514E-03
H    -0.75501185E+00   -0.47304108E+00   -0.78487463E-03
           3
Time step:                   1 Sim. Time [au]          10.00
O    -0.24949261E-03    0.11790436E+00    0.46981146E-03
H     0.77087080E+00   -0.47365014E+00    0.11649478E-02
H    -0.76390016E+00   -0.46885852E+00    0.13112539E-02
           3
Time step:                   1 Sim. Time [au]          10.00
O    -0.24841249E-03    0.11755564E+00   -0.57587601E-04
H     0.76059242E+00   -0.47193892E+00    0.11232448E-03
H    -0.75005950E+00   -0.46501149E+00    0.21347881E-03
           3
Time step:                   2 Sim. Time [au]          20.00
O     0.10639711E-02    0.11874135E+00   -0.33963543E-03
H     0.73919057E+00   -0.47261766E+00   -0.12642933E-03
H    -0.75019891E+00   -0.48238532E+00    0.18890769E-03
           3
Time step:                   2 Sim. Time [au]          20.00
O    -0.35394289E-03    0.11831957E+00   -0.11739887E-02
H     0.75291466E+00   -0.47436895E+00   -0.18138591E-02
H    -0.75261060E+00   -0.47350575E+00   -0.14615880E-02
           3
Time step:                   2 Sim. Time [au]          20.00
O    -0.47609395E-03    0.11778640E+00    0.90127574E-03
H     0.78407666E+00   -0.47483712E+00    0.23606182E-02
H    -0.77034947E+00   -0.46507837E+00    0.27720460E-02
           3
Time step:                   2 Sim. Time [au]          20.00
O    -0.44171309E-03    0.11713939E+00   -0.13296890E-03
H     0.76376906E+00   -0.47151599E+00    0.26753935E-03
H    -0.74302464E+00   -0.45768497E+00    0.53669362E-03
