           3
Time step:                   1 Sim. Time [au]          10.00
O     0.19439142E-03    0.11812570E+00   -0.89091362E-03
H     0.75128511E+00   -0.47109419E+00   -0.15595795E-02
H    -0.75655572E+00   -0.47514965E+00   -0.16578476E-02
           3
Time step:                   1 Sim. Time [au]          10.00
O    -0.29639186E-03    0.11865961E+00   -0.52466776E-03
H     0.76067048E+00   -0.47922034E+00   -0.90392175E-03
H    -0.75534461E+00   -0.47544167E+00   -0.10134275E-02
           3
Time step:                   1 Sim. Time [au]          10.00
O     0.28373798E-03    0.11702800E+00   -0.40663705E-03
H     0.76316728E+00   -0.46368121E+00   -0.67681606E-03
H    -0.76405358E+00   -0.46515073E+00   -0.81846195E-03
           3
Time step:                   1 Sim. Time [au]          10.00
O     0.47323373E-03    0.11812837E+00   -0.51828891E-03
H     0.75506839E+00   -0.46900903E+00   -0.86111194E-03
H    -0.76628139E+00   -0.47735757E+00   -0.95280304E-03
           3
Time step:                   2 Sim. Time [au]          20.00
O     0.37621926E-03    0.11825129E+00   -0.17736992E-02
H     0.74542364E+00   -0.47012631E+00   -0.30114219E-02
H    -0.75562876E+00   -0.47812976E+00   -0.33878225E-02
           3
Time step:                   2 Sim. Time [au]          20.00
O    -0.58713394E-03    0.11930696E+00   -0.10680054E-02
H     0.76390003E+00   -0.48622340E+00   -0.17279611E-02
H    -0.75327028E+00   -0.47867330E+00   -0.21091052E-02
           3
Time step:                   2 Sim. Time [au]          20.00
O     0.56831404E-03    0.11604837E+00   -0.80647627E-03
H     0.76910375E+00   -0.45529781E+00   -0.12991273E-02
H    -0.77060938E+00   -0.45828846E+00   -0.17695589E-02
           3
Time step:                   2 Sim. Time [au]          20.00
O     0.89797450E-03    0.11822701E+00   -0.10518836E-02
H     0.75295765E+00   -0.46600501E+00   -0.16263555E-02
H    -0.77494383E+00   -0.48235113E+00   -0.19586050E-02
