           3
 Time step:           1
O   0.1048702720E-03  0.7179664195E-04 -0.3331617328E-04
H  -0.1703679355E-02 -0.6199827624E-04 -0.4609891340E-05
H   0.6673412502E-03 -0.1011050663E-02  0.3343364993E-04
O  -0.3098496355E-04  0.2961825377E-04 -0.1110930366E-03
H  -0.4047646737E-03 -0.2290248489E-03 -0.1716710176E-03
H   0.4279882137E-03 -0.1664952670E-03 -0.1188509969E-03
O  -0.4281439034E-04 -0.1946286989E-04  0.8438389843E-04
H   0.2551831229E-02 -0.2721316542E-03  0.2319447186E-03
H  -0.1237701311E-02  0.6260019167E-03  0.2829044263E-03
O  -0.3908626958E-04 -0.7974043011E-04 -0.1476388540E-04
H   0.6149627246E-03  0.3832397165E-04  0.3372738524E-04
H   0.1342052988E-02  0.1322220565E-02  0.7256049869E-04
           3
 Time step:           2
O   0.9775194161E-04  0.7396931855E-04 -0.3318946899E-04
H  -0.1641628507E-02  0.3409509230E-04  0.2047331912E-05
H   0.7350086924E-03 -0.9177276231E-03  0.2409071550E-04
O  -0.3040538716E-04  0.3374724165E-04 -0.1146210360E-03
H  -0.4031966627E-03 -0.1111792146E-03 -0.1638698318E-03
H   0.4946348326E-03 -0.9929471859E-04 -0.1282945494E-03
O  -0.4450700464E-04 -0.2134872330E-04  0.7888274627E-04
H   0.2441958770E-02 -0.1231107032E-03  0.2371731083E-03
H  -0.1143291720E-02  0.7195744966E-03  0.2867906866E-03
O  -0.3754138876E-04 -0.7345228129E-04 -0.1250325130E-04
H   0.6014899292E-03  0.1781699190E-03  0.3660303960E-04
H   0.1336377451E-02  0.1351603761E-02  0.7102072676E-04
