           3
 Time step:           1
O   0.1428438936E-03 -0.3229200638E-04 -0.6243037038E-04
H  -0.1832428051E-02  0.5656788309E-03  0.4254543674E-03
H   0.1119307236E-02 -0.7498780356E-03  0.1864253294E-04
O  -0.3165167195E-04  0.1217310861E-03 -0.2126766534E-03
H  -0.8789704235E-03  0.2789300659E-03 -0.7040697637E-03
H   0.5191777491E-03 -0.2745858878E-03 -0.4431982891E-04
O   0.3268280602E-04 -0.1503319046E-03  0.7689061323E-04
H   0.2627476514E-02 -0.3331398537E-03  0.7851421897E-03
H  -0.1279617127E-02  0.9303355159E-03  0.1747881445E-02
O  -0.1285668743E-03  0.1940501015E-03 -0.3083075399E-03
H   0.2260367146E-03 -0.8751322215E-03  0.7131900679E-04
H   0.1688088900E-02  0.2332185537E-03  0.1404830148E-04
           3
 Time step:           2
O   0.9856940047E-04 -0.2572329950E-04  0.4724145410E-04
H  -0.4920292531E-03  0.1587874557E-02  0.2952593730E-03
H   0.1036840334E-02 -0.1041959792E-02 -0.7175757603E-03
O   0.1277310248E-03  0.1998578347E-03 -0.3570360275E-03
H  -0.7036250484E-03  0.5156060052E-03 -0.2878927087E-03
H   0.1519937099E-02 -0.6090550023E-03 -0.4674692769E-04
O  -0.1773422040E-03 -0.1601147165E-03 -0.2990218119E-03
H   0.1323384697E-02 -0.7088406382E-03  0.9105498923E-03
H  -0.2362695788E-02  0.1577760454E-02  0.2042670103E-02
O  -0.1067059868E-03  0.3854266795E-03  0.1080603781E-03
H   0.1236174632E-02 -0.2916242389E-03 -0.2010512873E-03
H   0.2107638974E-02  0.5285277383E-03  0.1696431747E-03
