           3
     Units: angs.;  Time step:           1  ;  Sim. Time [au]:           7.00
O    -0.88260189E-04    0.11834271E+00   -0.23447951E-03
H     0.76188116E+00   -0.47328410E+00    0.40669286E-02
H    -0.76018740E+00   -0.47387131E+00   -0.37582126E-03
           3
     Units: angs.;  Time step:           1  ;  Sim. Time [au]:           7.00
O     0.34895507E-03    0.11760684E+00   -0.11532664E-04
H     0.75398979E+00   -0.47113670E+00    0.40171650E-04
H    -0.75801923E+00   -0.46808129E+00    0.63459413E-03
           3
     Units: angs.;  Time step:           2  ;  Sim. Time [au]:          14.00
O    -0.14812309E-03    0.11884459E+00   -0.52489303E-03
H     0.76610671E+00   -0.47498058E+00    0.88259949E-02
H    -0.76361399E+00   -0.47574184E+00    0.47303878E-04
           3
     Units: angs.;  Time step:           2  ;  Sim. Time [au]:          14.00
O     0.82425409E-03    0.11709167E+00   -0.95909433E-04
H     0.75142876E+00   -0.47088474E+00   -0.81946220E-04
H    -0.75924651E+00   -0.46341379E+00    0.23346884E-02
