3
Units: a.u.;  Time step: 1
O  -0.8354631164E-05  0.1276904699E-03 -0.6799889455E-04
H   0.1182433956E-02 -0.4276272881E-03  0.1244409632E-02
H  -0.8841310026E-03 -0.4536101503E-03 -0.3409331636E-04
O   0.1237332509E-03 -0.1385059259E-03 -0.1243989531E-04
H  -0.7436237956E-03  0.1454437085E-03 -0.3666914861E-04
H  -0.2564905598E-03  0.1193829432E-02  0.2994954456E-03
3
Units: a.u.;  Time step: 2
O  -0.2772153100E-04  0.1390478688E-03 -0.6714388712E-04
H   0.1074535825E-02 -0.4495218783E-03  0.1220057386E-02
H  -0.8827655428E-03 -0.5738416022E-03  0.2072493324E-03
O   0.1100606530E-03 -0.1386853140E-03 -0.4642386720E-04
H  -0.6631586451E-03 -0.9561505211E-05  0.7495147860E-06
H  -0.2399005040E-03  0.1401360171E-02  0.5343466101E-03
