           6
 Time step:           1
O  -0.1489314089E+01  0.2611658359E-02 -0.1387515240E+00
H  -0.1910145008E+01  0.2082679176E-02  0.7336702086E+00
H  -0.5291864192E+00 -0.1986223055E-02  0.5641525476E-01
O   0.1405267214E+01  0.2175125080E-03  0.1504518178E+00
H   0.1762070839E+01 -0.7733453862E+00 -0.3272988051E+00
H   0.1757720666E+01  0.7458735754E+00 -0.3045652312E+00
