           6
Time step:                   1 Sim. Time [au]          40.00
O    -0.14891935E+01    0.26130655E-02   -0.13844971E+00
H    -0.19101517E+01    0.20670652E-02    0.73059743E+00
H    -0.53282611E+00   -0.19924011E-02    0.54608992E-01
O     0.14052631E+01    0.21836566E-03    0.15059993E+00
H     0.17629681E+01   -0.77463038E+00   -0.32842256E+00
H     0.17586203E+01    0.74714449E+00   -0.30570374E+00
           6
Time step:                   2 Sim. Time [au]          80.00
O    -0.14887897E+01    0.36373633E-02   -0.14086572E+00
H    -0.19108274E+01    0.10193459E-03    0.70353858E+00
H    -0.53345467E+00   -0.36425051E-02    0.42169853E-01
O     0.14051916E+01   -0.41963488E-03    0.15346256E+00
H     0.17598672E+01   -0.77581432E+00   -0.35218054E+00
H     0.17572946E+01    0.74601198E+00   -0.29409863E+00
