           6
 Time step:           1
O  -0.1489193472E+01  0.2613065460E-02 -0.1384497086E+00
H  -0.1910151666E+01  0.2067065194E-02  0.7305974312E+00
H  -0.5328261118E+00 -0.1992401077E-02  0.5460899160E-01
O   0.1405263124E+01  0.2183656608E-03  0.1505999332E+00
H   0.1762968090E+01 -0.7746303838E+00 -0.3284225631E+00
H   0.1758620259E+01  0.7471444902E+00 -0.3057037442E+00
           6
 Time step:           2
O  -0.1488789740E+01  0.3637363292E-02 -0.1408657185E+00
H  -0.1910827395E+01  0.1019345950E-03  0.7035385829E+00
H  -0.5334546737E+00 -0.3642505093E-02  0.4216985274E-01
O   0.1405191628E+01 -0.4196348827E-03  0.1534625567E+00
H   0.1759867175E+01 -0.7758143180E+00 -0.3521805395E+00
H   0.1757294612E+01  0.7460119782E+00 -0.2940986296E+00
