           6
Time step:                   1 Sim. Time [au]          10.00
C    -0.16723959E-01   -0.76253538E-02    0.44241411E-02
N    -0.11632291E-01   -0.41551263E-02    0.13387547E+01
H     0.99378308E+00    0.53869432E-01   -0.45223006E+00
H     0.94448319E+00    0.25082191E-01    0.16487657E+01
H    -0.81183012E+00    0.38002043E-01    0.18811654E+01
H    -0.76602689E+00    0.31544229E-01   -0.57760137E+00
           6
Time step:                   2 Sim. Time [au]          20.00
C    -0.17920265E-01   -0.78757310E-02   -0.31355523E-02
N    -0.12108063E-01   -0.34083820E-02    0.13462848E+01
H     0.99374523E+00    0.53380048E-01   -0.45125293E+00
H     0.95268309E+00    0.22101396E-01    0.16522517E+01
H    -0.80371675E+00    0.33577984E-01    0.18596712E+01
H    -0.76143602E+00    0.32045533E-01   -0.57512841E+00
           6
Time step:                   3 Sim. Time [au]          30.00
C    -0.18785105E-01   -0.81627369E-02   -0.11114287E-01
N    -0.12420975E-01   -0.26501349E-02    0.13542082E+01
H     0.99321113E+00    0.52801876E-01   -0.45026626E+00
H     0.96071514E+00    0.19169248E-01    0.16567884E+01
H    -0.79729320E+00    0.29101275E-01    0.18392891E+01
H    -0.76070393E+00    0.32916251E-01   -0.57530014E+00
