           6
Time step:                   1 Sim. Time [au]          10.00
C    -0.16723959E-01   -0.76253538E-02    0.44241411E-02
N    -0.11632291E-01   -0.41551263E-02    0.13387547E+01
H     0.99378308E+00    0.53869432E-01   -0.45223006E+00
H     0.94448319E+00    0.25082191E-01    0.16487657E+01
H    -0.81183012E+00    0.38002043E-01    0.18811654E+01
H    -0.76602689E+00    0.31544229E-01   -0.57760137E+00
           6
Time step:                   2 Sim. Time [au]          20.00
C    -0.17920265E-01   -0.78757310E-02   -0.31355523E-02
N    -0.12108063E-01   -0.34083820E-02    0.13462848E+01
H     0.99374523E+00    0.53380048E-01   -0.45125293E+00
H     0.95268309E+00    0.22101396E-01    0.16522517E+01
H    -0.80371675E+00    0.33577984E-01    0.18596712E+01
H    -0.76143602E+00    0.32045533E-01   -0.57512841E+00
           6
Time step:                   3 Sim. Time [au]          30.00
C    -0.18779626E-01   -0.81531535E-02   -0.11048396E-01
N    -0.12506342E-01   -0.26669538E-02    0.13541251E+01
H     0.99303132E+00    0.52725753E-01   -0.45013188E+00
H     0.96070211E+00    0.19337126E-01    0.16566918E+01
H    -0.79640481E+00    0.29105820E-01    0.18391089E+01
H    -0.76027853E+00    0.32939462E-01   -0.57478856E+00
           6
Time step:                   4 Sim. Time [au]          40.00
C    -0.19295974E-01   -0.84675025E-02   -0.19376911E-01
N    -0.12738799E-01   -0.19155065E-02    0.13623543E+01
H     0.99180206E+00    0.51979150E-01   -0.44899875E+00
H     0.96853377E+00    0.16632624E-01    0.16622032E+01
H    -0.79081888E+00    0.24587783E-01    0.18197224E+01
H    -0.76308376E+00    0.34212593E-01   -0.57715709E+00
