6
Time step: 1
C  -0.2579058798E-03 -0.4475902468E-04 -0.1395207126E-02
N  -0.9722979112E-04  0.1416165289E-03  0.1393671234E-02
H   0.5672575622E-04 -0.7689837514E-04  0.1710502504E-03
H   0.1566647468E-02 -0.5837473624E-03  0.5686075473E-03
H   0.1608928990E-02 -0.8314806538E-03 -0.4149867289E-02
H   0.1191957499E-02  0.5763493425E-04  0.6688737067E-03
6
Time step: 2
C  -0.1928802948E-03 -0.5150233132E-04 -0.1445842411E-02
N  -0.7706894442E-04  0.1416691671E-03  0.1439734332E-02
H  -0.4599342984E-04 -0.1324692219E-03  0.1748465527E-03
H   0.1521268390E-02 -0.5182551591E-03  0.7467483320E-03
H   0.1388574163E-02 -0.8699316075E-03 -0.3918332048E-02
H   0.5054351137E-03  0.1657841272E-03  0.2186698251E-03
6
Time step: 3
C  -0.1280667228E-03 -0.5539079233E-04 -0.1525343769E-02
N  -0.3883149049E-04  0.1405622540E-03  0.1510739454E-02
H  -0.1544546537E-03 -0.8198563715E-04  0.1927012084E-03
H   0.1467752454E-02 -0.5740433409E-03  0.9449706261E-03
H   0.9965950105E-03 -0.7953416846E-03 -0.3664819364E-02
H  -0.2442458167E-03  0.1582155808E-03 -0.2902812073E-03
