6
Units: a.u.;  Time step: 1
C  -0.2579058798E-03 -0.4475902468E-04 -0.1395207126E-02
N  -0.9722979112E-04  0.1416165289E-03  0.1393671234E-02
H   0.5672575622E-04 -0.7689837514E-04  0.1710502504E-03
H   0.1566647468E-02 -0.5837473624E-03  0.5686075473E-03
H   0.1608928990E-02 -0.8314806538E-03 -0.4149867289E-02
H   0.1191957499E-02  0.5763493425E-04  0.6688737067E-03
6
Units: a.u.;  Time step: 2
C  -0.1942324077E-03 -0.4986983917E-04 -0.1461942888E-02
N  -0.8258577924E-04  0.1406119240E-03  0.1452300020E-02
H  -0.7103145576E-04 -0.1080619896E-03  0.1982493570E-03
H   0.1532465928E-02 -0.5428300040E-03  0.7489151052E-03
H   0.1457480330E-02 -0.8405712440E-03 -0.3973767029E-02
H   0.5431417886E-03  0.1318304050E-03  0.2657725605E-03
6
Units: a.u.;  Time step: 3
C  -0.1292068227E-03 -0.5661314582E-04 -0.1512578173E-02
N  -0.6242493254E-04  0.1406645622E-03  0.1498363118E-02
H  -0.1737506418E-03 -0.1636328364E-03  0.2020456593E-03
H   0.1487086849E-02 -0.4773378007E-03  0.9270558899E-03
H   0.1237125503E-02 -0.8790221977E-03 -0.3742231788E-02
H  -0.1433805965E-03  0.2399795979E-03 -0.1844313212E-03
6
Units: a.u.;  Time step: 4
C  -0.6221139923E-04 -0.6055789796E-04 -0.1591442578E-02
N  -0.2362765338E-04  0.1392772867E-03  0.1568507896E-02
H  -0.2858214413E-03 -0.1138146182E-03  0.2203759564E-03
H   0.1429884434E-02 -0.5310243507E-03  0.1129162830E-02
H   0.8383071925E-03 -0.8031515634E-03 -0.3476679632E-02
H  -0.9127038701E-03  0.2342605941E-03 -0.7054167345E-03
