           6    
 Time step:          11   
C  -0.3215793519E-03 -0.3964821018E-04 -0.1328471365E-02
N  -0.1118738030E-03  0.1426211338E-03  0.1335042448E-02
H   0.1844829682E-03 -0.4573476065E-04  0.1438511438E-03
H   0.1600829009E-02 -0.6246647208E-03  0.3882999894E-03
H   0.1760377651E-02 -0.8223900635E-03 -0.4325967549E-02
H   0.1840773209E-02 -0.1656053646E-04  0.1071974853E-02             
