          60
 Time step:           1
O   0.4082673995E+00 -0.6933542307E+00 -0.2777135389E+00
H  -0.4713573375E+00 -0.3651773957E+00 -0.6098805787E+00
H   0.4855328432E+00 -0.1590749657E+01 -0.7071476667E+00
O   0.1657298207E+01  0.1409271084E+01 -0.1364048715E+01
H   0.1353389978E+01  0.5755299512E+00 -0.9324632132E+00
H   0.2100291259E+01  0.1111148500E+01 -0.2186228662E+01
O   0.2219135587E+01  0.2933489504E+00 -0.3800053465E+01
H   0.3034070138E+01  0.3254428028E+00 -0.4321655760E+01
H   0.1940195476E+01 -0.6729900105E+00 -0.3781308092E+01
O   0.1278841019E+00 -0.3010570532E+01 -0.1578870094E+01
H  -0.7638536090E+00 -0.2743363897E+01 -0.1945073716E+01
H  -0.9135397187E-01 -0.3687568898E+01 -0.8879516534E+00
O  -0.2810207060E+01  0.4331848573E+00  0.1338223279E+01
H  -0.3442728261E+01 -0.3151777147E+00  0.1458603604E+01
H  -0.1965999347E+01  0.9564008394E-01  0.1718125621E+01
O  -0.3961740322E+01 -0.2043487200E+01  0.1543916031E+01
H  -0.3855032791E+01 -0.2563582248E+01  0.6777355793E+00
H  -0.4814948653E+01 -0.2307584454E+01  0.1896267497E+01
O  -0.3539689284E+01 -0.3586493318E+01 -0.5417671459E+00
H  -0.2724913207E+01 -0.4044113480E+01 -0.2587315561E+00
H  -0.3276977835E+01 -0.3128100340E+01 -0.1377825054E+01
O  -0.7439051279E+00  0.2311512726E+01 -0.2248556889E+01
H  -0.9620592125E+00  0.3120726531E+01 -0.1731300884E+01
H   0.1653412351E+00  0.2043110357E+01 -0.1936084109E+01
O  -0.1952922397E+01  0.1986808836E+00 -0.1171051499E+01
H  -0.1665248613E+01  0.1051095920E+01 -0.1598133838E+01
H  -0.2402144936E+01  0.3951219278E+00 -0.3077982588E+00
O  -0.2741332010E+00  0.1149304901E+01 -0.4734866393E+01
H   0.6777871284E+00  0.1002145139E+01 -0.4520329767E+01
H  -0.5857356848E+00  0.1712052028E+01 -0.4005587181E+01
O   0.3701731113E+00  0.2094777727E+01  0.2767854410E+01
H   0.8814139735E+00  0.2457804708E+01  0.1980264320E+01
H   0.8335214852E+00  0.2431229582E+01  0.3544047075E+01
O   0.1493453765E+01  0.3249481138E+01  0.6916928105E+00
H   0.7342726086E+00  0.3721098472E+01  0.3125613087E+00
H   0.1789912690E+01  0.2645704145E+01 -0.3054657639E-01
O  -0.1061961266E+01 -0.4424595092E+01  0.4526036627E+00
H  -0.9040874271E+00 -0.5323275532E+01  0.7728017021E+00
H  -0.1148814838E+01 -0.3857756110E+01  0.1278615480E+01
O   0.1349793301E+01 -0.2180025315E+01 -0.3929611732E+01
H   0.4848342796E+00 -0.2045660375E+01 -0.4388959917E+01
H   0.1127364290E+01 -0.2635098806E+01 -0.3110313476E+01
O  -0.1140799968E+01 -0.1323707022E+01 -0.4864481787E+01
H  -0.8983798629E+00 -0.3499724602E+00 -0.4783475560E+01
H  -0.1452970707E+01 -0.1449951975E+01 -0.5766358370E+01
O  -0.2092417268E+01  0.3054429961E+01  0.1874504271E+01
H  -0.1295894191E+01  0.2774084336E+01  0.2363457930E+01
H  -0.2596071265E+01  0.2221154402E+01  0.1735036756E+01
O  -0.9884618462E+00  0.4145530683E+01 -0.2394051197E+00
H  -0.1248300705E+01  0.5059925763E+01 -0.2348100681E+00
H  -0.1493672104E+01  0.3722102929E+01  0.5309146844E+00
O  -0.2261721191E+01 -0.2105190932E+01 -0.2494053164E+01
H  -0.2279542461E+01 -0.1219004575E+01 -0.2055005556E+01
H  -0.2086299669E+01 -0.1910066238E+01 -0.3444372874E+01
O  -0.1544230664E+01 -0.2980606841E+01  0.2597845589E+01
H  -0.2446037492E+01 -0.2676489148E+01  0.2410896746E+01
H  -0.1006798202E+01 -0.2153762703E+01  0.2694824973E+01
O  -0.4297969720E+00 -0.4795754739E+00  0.2253084419E+01
H   0.1243464285E-01 -0.6276552573E+00  0.1384700959E+01
H  -0.2624987906E-01  0.3407112404E+00  0.2613119425E+01
          60
 Time step:           1
O   0.4079640197E+00 -0.6915097933E+00 -0.2803893666E+00
H  -0.4734365529E+00 -0.3719868720E+00 -0.6059970793E+00
H   0.4813195697E+00 -0.1582927894E+01 -0.6803674462E+00
O   0.1654889340E+01  0.1412102406E+01 -0.1364106492E+01
H   0.1339161986E+01  0.5789879970E+00 -0.9065581194E+00
H   0.2090359943E+01  0.1111618512E+01 -0.2179213545E+01
O   0.2221370066E+01  0.2927020373E+00 -0.3797695580E+01
H   0.3030045540E+01  0.3197383621E+00 -0.4318495169E+01
H   0.1943041179E+01 -0.6683938022E+00 -0.3760901791E+01
O   0.1294940527E+00 -0.3009146801E+01 -0.1579548385E+01
H  -0.7586788078E+00 -0.2748253341E+01 -0.1942328930E+01
H  -0.7200648948E-01 -0.3677524485E+01 -0.9054932008E+00
O  -0.2812327791E+01  0.4379359321E+00  0.1337585578E+01
H  -0.3435054379E+01 -0.3090110270E+00  0.1462600319E+01
H  -0.1965397768E+01  0.9641624104E-01  0.1746420525E+01
O  -0.3960887425E+01 -0.2042747415E+01  0.1539204747E+01
H  -0.3846329337E+01 -0.2571270689E+01  0.6935809788E+00
H  -0.4812279460E+01 -0.2318637752E+01  0.1908495050E+01
O  -0.3538625905E+01 -0.3584646509E+01 -0.5412222962E+00
H  -0.2731180104E+01 -0.4057812483E+01 -0.2692133798E+00
H  -0.3287062042E+01 -0.3132589903E+01 -0.1372093816E+01
O  -0.7487090624E+00  0.2312616870E+01 -0.2247400855E+01
H  -0.9626569688E+00  0.3099329257E+01 -0.1731238533E+01
H   0.1532385168E+00  0.2043384799E+01 -0.1939048610E+01
O  -0.1956147584E+01  0.1986096833E+00 -0.1171484685E+01
H  -0.1668993100E+01  0.1057178284E+01 -0.1602582568E+01
H  -0.2406077758E+01  0.3897738735E+00 -0.3036171640E+00
O  -0.2749053686E+00  0.1149823904E+01 -0.4733498259E+01
H   0.6598888946E+00  0.9875685382E+00 -0.4533016582E+01
H  -0.5860668967E+00  0.1717068192E+01 -0.4005192954E+01
O   0.3726186885E+00  0.2089806507E+01  0.2764360314E+01
H   0.8761508295E+00  0.2484944699E+01  0.1981856570E+01
H   0.8449064464E+00  0.2435263297E+01  0.3551253120E+01
O   0.1496172103E+01  0.3252532946E+01  0.6975584159E+00
H   0.7204578505E+00  0.3717462154E+01  0.3161376765E+00
H   0.1783571302E+01  0.2644887009E+01 -0.2485222150E-01
O  -0.1060424621E+01 -0.4423237930E+01  0.4522904677E+00
H  -0.9115951557E+00 -0.5316747484E+01  0.7675510893E+00
H  -0.1138814541E+01 -0.3843470489E+01  0.1289246987E+01
O   0.1351702084E+01 -0.2182818356E+01 -0.3932663939E+01
H   0.4812474361E+00 -0.2042260457E+01 -0.4379000512E+01
H   0.1143738668E+01 -0.2655251574E+01 -0.3107530729E+01
O  -0.1139349588E+01 -0.1327064793E+01 -0.4863930325E+01
H  -0.9061441821E+00 -0.3521123173E+00 -0.4797269242E+01
H  -0.1438423525E+01 -0.1461973384E+01 -0.5757985433E+01
O  -0.2092155228E+01  0.3056050500E+01  0.1874918298E+01
H  -0.1293203735E+01  0.2777666323E+01  0.2364954865E+01
H  -0.2587597589E+01  0.2211692413E+01  0.1729713913E+01
O  -0.9889128045E+00  0.4144849266E+01 -0.2395870581E+00
H  -0.1245739910E+01  0.5088415878E+01 -0.2546915396E+00
H  -0.1500235302E+01  0.3716657587E+01  0.5259952006E+00
O  -0.2262978039E+01 -0.2108785592E+01 -0.2494544368E+01
H  -0.2285537511E+01 -0.1221903482E+01 -0.2064129999E+01
H  -0.2074697251E+01 -0.1932320331E+01 -0.3425274167E+01
O  -0.1540649404E+01 -0.2982433297E+01  0.2594991010E+01
H  -0.2474256261E+01 -0.2685841859E+01  0.2422365038E+01
H  -0.1041357061E+01 -0.2160272591E+01  0.2688185636E+01
O  -0.4285555682E+00 -0.4784282410E+00  0.2252578926E+01
H   0.1893422782E-01 -0.6292910014E+00  0.1386000153E+01
H  -0.3679986225E-01  0.3321569814E+00  0.2606505522E+01
          60
 Time step:           1
O   0.4109193630E+00 -0.6885748987E+00 -0.2802528094E+00
H  -0.4679413261E+00 -0.3618641269E+00 -0.6188559680E+00
H   0.4895713831E+00 -0.1590435793E+01 -0.6865418234E+00
O   0.1659989942E+01  0.1413845534E+01 -0.1364433956E+01
H   0.1344458987E+01  0.5873505911E+00 -0.9057095672E+00
H   0.2083082886E+01  0.1091099716E+01 -0.2193031184E+01
O   0.2218751285E+01  0.2911891925E+00 -0.3797641773E+01
H   0.3038026518E+01  0.3134551985E+00 -0.4314675624E+01
H   0.1936263893E+01 -0.6723645408E+00 -0.3775747125E+01
O   0.1285999803E+00 -0.3011181676E+01 -0.1577519361E+01
H  -0.7684473926E+00 -0.2763619739E+01 -0.1937246913E+01
H  -0.8963184275E-01 -0.3682111104E+01 -0.8795810844E+00
O  -0.2813381556E+01  0.4389503077E+00  0.1340178288E+01
H  -0.3440255072E+01 -0.2984584006E+00  0.1451971016E+01
H  -0.1967486058E+01  0.1075815190E+00  0.1739640879E+01
O  -0.3959185419E+01 -0.2045652311E+01  0.1544905569E+01
H  -0.3845221477E+01 -0.2565126736E+01  0.6771817283E+00
H  -0.4812427271E+01 -0.2293709764E+01  0.1894970421E+01
O  -0.3543073223E+01 -0.3585376141E+01 -0.5410394194E+00
H  -0.2718246495E+01 -0.4052722768E+01 -0.2697029582E+00
H  -0.3265547595E+01 -0.3135169158E+01 -0.1370497849E+01
O  -0.7465746845E+00  0.2311953334E+01 -0.2250182813E+01
H  -0.9348875580E+00  0.3105703700E+01 -0.1731776823E+01
H   0.1581842284E+00  0.2034973608E+01 -0.1942973159E+01
O  -0.1954988681E+01  0.1966531853E+00 -0.1172478082E+01
H  -0.1667639253E+01  0.1053076069E+01 -0.1593975707E+01
H  -0.2395985091E+01  0.3931799420E+00 -0.3117244382E+00
O  -0.2733116335E+00  0.1151250736E+01 -0.4736124665E+01
H   0.6650771584E+00  0.9947710893E+00 -0.4524513536E+01
H  -0.6016319972E+00  0.1694673814E+01 -0.3994095108E+01
O   0.3752552587E+00  0.2092838648E+01  0.2765715647E+01
H   0.8746786938E+00  0.2472719298E+01  0.1978391382E+01
H   0.8229214683E+00  0.2426678536E+01  0.3529728112E+01
O   0.1489852871E+01  0.3247429408E+01  0.6935927396E+00
H   0.7164404982E+00  0.3720971814E+01  0.3144197797E+00
H   0.1800295626E+01  0.2649120189E+01 -0.1624120330E-01
O  -0.1063224110E+01 -0.4422298995E+01  0.4503036674E+00
H  -0.9169337832E+00 -0.5321915639E+01  0.7633819859E+00
H  -0.1147168385E+01 -0.3848692000E+01  0.1281146417E+01
O   0.1354825712E+01 -0.2184577956E+01 -0.3932906082E+01
H   0.4886684310E+00 -0.2051470989E+01 -0.4385712069E+01
H   0.1129089537E+01 -0.2645587991E+01 -0.3104554820E+01
O  -0.1137926338E+01 -0.1325866343E+01 -0.4865559076E+01
H  -0.8946904064E+00 -0.3440631579E+00 -0.4790828400E+01
H  -0.1443281717E+01 -0.1464906077E+01 -0.5750679296E+01
O  -0.2094766310E+01  0.3059046422E+01  0.1875344182E+01
H  -0.1293544910E+01  0.2770565505E+01  0.2379489029E+01
H  -0.2588317674E+01  0.2215162761E+01  0.1727295715E+01
O  -0.9901916342E+00  0.4147610545E+01 -0.2385428192E+00
H  -0.1242379184E+01  0.5069997483E+01 -0.2382503098E+00
H  -0.1493161678E+01  0.3717630872E+01  0.5289460305E+00
O  -0.2263033218E+01 -0.2109107359E+01 -0.2492424450E+01
H  -0.2276713207E+01 -0.1225060511E+01 -0.2069415151E+01
H  -0.2063711851E+01 -0.1912316894E+01 -0.3438168997E+01
O  -0.1545291040E+01 -0.2981569292E+01  0.2595104676E+01
H  -0.2467045904E+01 -0.2683465708E+01  0.2395796141E+01
H  -0.1044411788E+01 -0.2160962991E+01  0.2698993821E+01
O  -0.4286034416E+00 -0.4781813757E+00  0.2254951134E+01
H   0.1676721348E-01 -0.6414991290E+00  0.1380833848E+01
H  -0.1186546167E-01  0.3325696362E+00  0.2620442878E+01
          60
 Time step:           1
O   0.4085655073E+00 -0.6934361539E+00 -0.2763577929E+00
H  -0.4429641908E+00 -0.3658984715E+00 -0.6137785789E+00
H   0.5023382829E+00 -0.1591201773E+01 -0.6832180477E+00
O   0.1654603824E+01  0.1410240491E+01 -0.1368908959E+01
H   0.1372186979E+01  0.5873982747E+00 -0.9029385986E+00
H   0.2082436940E+01  0.1099719843E+01 -0.2191959641E+01
O   0.2218454500E+01  0.2931768406E+00 -0.3801575427E+01
H   0.3027775636E+01  0.3256352369E+00 -0.4325210465E+01
H   0.1930745006E+01 -0.6814557348E+00 -0.3761830296E+01
O   0.1274701929E+00 -0.3008149524E+01 -0.1576838685E+01
H  -0.7571334966E+00 -0.2743094782E+01 -0.1937563570E+01
H  -0.8005075963E-01 -0.3685048768E+01 -0.8985325564E+00
O  -0.2809762284E+01  0.4395476472E+00  0.1336923397E+01
H  -0.3433221336E+01 -0.3108328720E+00  0.1464950134E+01
H  -0.1963624628E+01  0.9845981019E-01  0.1732930888E+01
O  -0.3962520362E+01 -0.2045030707E+01  0.1540096127E+01
H  -0.3850924561E+01 -0.2564013146E+01  0.6805884534E+00
H  -0.4810267823E+01 -0.2327729951E+01  0.1909840674E+01
O  -0.3540701804E+01 -0.3585595671E+01 -0.5404660232E+00
H  -0.2715670297E+01 -0.4050151858E+01 -0.2703663673E+00
H  -0.3298912508E+01 -0.3130555331E+01 -0.1365607328E+01
O  -0.7437808882E+00  0.2307584467E+01 -0.2247515247E+01
H  -0.9446056908E+00  0.3105851645E+01 -0.1727765882E+01
H   0.1496193446E+00  0.2040778723E+01 -0.1952014600E+01
O  -0.1954703171E+01  0.1950170236E+00 -0.1173862759E+01
H  -0.1670873310E+01  0.1037107943E+01 -0.1597433772E+01
H  -0.2405628987E+01  0.3972192392E+00 -0.3085668326E+00
O  -0.2711747222E+00  0.1148134465E+01 -0.4733783822E+01
H   0.6753194264E+00  0.9790439155E+00 -0.4527449791E+01
H  -0.5930948364E+00  0.1703490540E+01 -0.4001392530E+01
O   0.3752751601E+00  0.2094657014E+01  0.2768381486E+01
H   0.8743447364E+00  0.2473237557E+01  0.1985545435E+01
H   0.8273626989E+00  0.2427391169E+01  0.3547868909E+01
O   0.1495215080E+01  0.3252197770E+01  0.6939062229E+00
H   0.7178134426E+00  0.3723973400E+01  0.3232268714E+00
H   0.1792963432E+01  0.2656501606E+01 -0.2459835766E-01
O  -0.1061004523E+01 -0.4418629191E+01  0.4515599446E+00
H  -0.9218465685E+00 -0.5339714117E+01  0.7657395506E+00
H  -0.1148385519E+01 -0.3862253132E+01  0.1275906270E+01
O   0.1351046492E+01 -0.2183707813E+01 -0.3933884856E+01
H   0.5019670413E+00 -0.2029825455E+01 -0.4387927455E+01
H   0.1118554447E+01 -0.2640919748E+01 -0.3104428380E+01
O  -0.1138416115E+01 -0.1325982396E+01 -0.4861341117E+01
H  -0.8992123608E+00 -0.3561171109E+00 -0.4783185136E+01
H  -0.1452495644E+01 -0.1451115284E+01 -0.5767539995E+01
O  -0.2095426854E+01  0.3058574956E+01  0.1874822750E+01
H  -0.1298503833E+01  0.2772167562E+01  0.2375878421E+01
H  -0.2592717070E+01  0.2210592285E+01  0.1718017357E+01
O  -0.9886499562E+00  0.4146676839E+01 -0.2406451545E+00
H  -0.1256785998E+01  0.5085962695E+01 -0.2584436864E+00
H  -0.1506049740E+01  0.3729919172E+01  0.5131719885E+00
O  -0.2260277051E+01 -0.2109729551E+01 -0.2490955549E+01
H  -0.2289664043E+01 -0.1211641728E+01 -0.2060452350E+01
H  -0.2077135777E+01 -0.1918511439E+01 -0.3424173552E+01
O  -0.1545809932E+01 -0.2979586039E+01  0.2596848807E+01
H  -0.2437431441E+01 -0.2677498348E+01  0.2409075771E+01
H  -0.1026484195E+01 -0.2159760283E+01  0.2691932203E+01
O  -0.4320750143E+00 -0.4779410587E+00  0.2252704173E+01
H   0.7595085426E-02 -0.6401055741E+00  0.1402229643E+01
H  -0.2926354414E-01  0.3247572168E+00  0.2627545237E+01
          60
 Time step:           1
O   0.4096588822E+00 -0.6921145700E+00 -0.2780340242E+00
H  -0.4658275150E+00 -0.3695928036E+00 -0.6100865213E+00
H   0.5026357120E+00 -0.1591798816E+01 -0.6923482829E+00
O   0.1658914291E+01  0.1411787072E+01 -0.1364732663E+01
H   0.1358338396E+01  0.5768591446E+00 -0.9267217068E+00
H   0.2088253636E+01  0.1114672412E+01 -0.2191551534E+01
O   0.2216721261E+01  0.2900538262E+00 -0.3797616922E+01
H   0.3032796486E+01  0.3041418436E+00 -0.4319170177E+01
H   0.1944088930E+01 -0.6752231567E+00 -0.3781011872E+01
O   0.1292824967E+00 -0.3010152943E+01 -0.1578007945E+01
H  -0.7603656994E+00 -0.2737036243E+01 -0.1939599917E+01
H  -0.1004091413E+00 -0.3677145044E+01 -0.8835622404E+00
O  -0.2813386710E+01  0.4375555509E+00  0.1339456717E+01
H  -0.3440535651E+01 -0.3076709876E+00  0.1471723965E+01
H  -0.1969893835E+01  0.9997209048E-01  0.1730841905E+01
O  -0.3964931652E+01 -0.2045677325E+01  0.1539859762E+01
H  -0.3840160288E+01 -0.2569887919E+01  0.6993330361E+00
H  -0.4822102264E+01 -0.2311620954E+01  0.1900068649E+01
O  -0.3542107185E+01 -0.3581073652E+01 -0.5438496103E+00
H  -0.2718216938E+01 -0.4044949541E+01 -0.2682680104E+00
H  -0.3288581953E+01 -0.3142632777E+01 -0.1357078876E+01
O  -0.7427642853E+00  0.2311652220E+01 -0.2250790528E+01
H  -0.9587574149E+00  0.3112210808E+01 -0.1708751014E+01
H   0.1552121969E+00  0.2039506940E+01 -0.1932529106E+01
O  -0.1956156148E+01  0.1966440166E+00 -0.1169728394E+01
H  -0.1670434216E+01  0.1052274377E+01 -0.1602242517E+01
H  -0.2407140489E+01  0.3966198724E+00 -0.3027240350E+00
O  -0.2712773439E+00  0.1149186672E+01 -0.4736868624E+01
H   0.6739909610E+00  0.9781319838E+00 -0.4528080314E+01
H  -0.5963766916E+00  0.1707967467E+01 -0.3975627220E+01
O   0.3739111744E+00  0.2087926980E+01  0.2766181333E+01
H   0.8627133519E+00  0.2478220036E+01  0.1980998177E+01
H   0.8301289777E+00  0.2434145188E+01  0.3543806740E+01
O   0.1491461175E+01  0.3253250724E+01  0.6972917755E+00
H   0.7139734482E+00  0.3734253760E+01  0.3052750441E+00
H   0.1793525379E+01  0.2654636193E+01 -0.1530052003E-01
O  -0.1058023398E+01 -0.4421799672E+01  0.4500133431E+00
H  -0.9043644610E+00 -0.5318729595E+01  0.7781862592E+00
H  -0.1153505963E+01 -0.3859509191E+01  0.1288806643E+01
O   0.1356598590E+01 -0.2183536521E+01 -0.3935743248E+01
H   0.4930332107E+00 -0.2050346936E+01 -0.4371999376E+01
H   0.1135695665E+01 -0.2642808305E+01 -0.3102937824E+01
O  -0.1140783161E+01 -0.1326419036E+01 -0.4864129125E+01
H  -0.9024499801E+00 -0.3536337611E+00 -0.4790231961E+01
H  -0.1452814823E+01 -0.1461914779E+01 -0.5748241482E+01
O  -0.2095276399E+01  0.3059620576E+01  0.1876459734E+01
H  -0.1307370317E+01  0.2772784617E+01  0.2372336154E+01
H  -0.2594277279E+01  0.2215169375E+01  0.1732054979E+01
O  -0.9873966555E+00  0.4147123348E+01 -0.2438801259E+00
H  -0.1245128777E+01  0.5074893101E+01 -0.2547597831E+00
H  -0.1480043384E+01  0.3731107388E+01  0.5309556189E+00
O  -0.2264307329E+01 -0.2108129928E+01 -0.2493292664E+01
H  -0.2260844331E+01 -0.1210401750E+01 -0.2069210768E+01
H  -0.2074746606E+01 -0.1924949357E+01 -0.3438329238E+01
O  -0.1543222085E+01 -0.2980130011E+01  0.2596652848E+01
H  -0.2440342305E+01 -0.2683090959E+01  0.2413385094E+01
H  -0.1030153965E+01 -0.2152181329E+01  0.2694717246E+01
O  -0.4317278369E+00 -0.4805720644E+00  0.2254740106E+01
H   0.1831236452E-01 -0.6379402347E+00  0.1382428090E+01
H  -0.2187706835E-01  0.3322846225E+00  0.2614775457E+01
          60
 Time step:           2
O   0.4069345904E+00 -0.6943357664E+00 -0.2771652213E+00
H  -0.4741330595E+00 -0.3620017022E+00 -0.6042479684E+00
H   0.4832721514E+00 -0.1592800788E+01 -0.7179708733E+00
O   0.1657509021E+01  0.1408611048E+01 -0.1363657926E+01
H   0.1355742660E+01  0.5728703676E+00 -0.9449906976E+00
H   0.2108470192E+01  0.1114370364E+01 -0.2178769338E+01
O   0.2219510954E+01  0.2930480518E+00 -0.3801005995E+01
H   0.3037116519E+01  0.3278743136E+00 -0.4323156295E+01
H   0.1937193267E+01 -0.6720450243E+00 -0.3789454887E+01
O   0.1280329504E+00 -0.3011022828E+01 -0.1578605495E+01
H  -0.7678781667E+00 -0.2743074331E+01 -0.1953362174E+01
H  -0.9612787518E-01 -0.3690926990E+01 -0.8801478802E+00
O  -0.2808944369E+01  0.4317095216E+00  0.1336135529E+01
H  -0.3443504129E+01 -0.3189792187E+00  0.1456881459E+01
H  -0.1966514889E+01  0.9419779519E-01  0.1705089225E+01
O  -0.3961061258E+01 -0.2042964493E+01  0.1545227473E+01
H  -0.3858402346E+01 -0.2561482020E+01  0.6665854231E+00
H  -0.4812212958E+01 -0.2306276818E+01  0.1890469594E+01
O  -0.3539463655E+01 -0.3587143448E+01 -0.5421314746E+00
H  -0.2726306393E+01 -0.4041624120E+01 -0.2570844992E+00
H  -0.3270430936E+01 -0.3125393309E+01 -0.1383950923E+01
O  -0.7435370587E+00  0.2312194257E+01 -0.2247760385E+01
H  -0.9713995924E+00  0.3123618607E+01 -0.1739742004E+01
H   0.1703177310E+00  0.2045986175E+01 -0.1930341952E+01
O  -0.1951000566E+01  0.1992858074E+00 -0.1170145918E+01
H  -0.1661357496E+01  0.1052800910E+01 -0.1600087455E+01
H  -0.2403598260E+01  0.3960549975E+00 -0.3094940059E+00
O  -0.2759281083E+00  0.1149292776E+01 -0.4735265671E+01
H   0.6810763964E+00  0.1006679300E+01 -0.4511172082E+01
H  -0.5799237191E+00  0.1714697512E+01 -0.4014946508E+01
O   0.3682072887E+00  0.2095662348E+01  0.2769192277E+01
H   0.8890724834E+00  0.2451824506E+01  0.1984913342E+01
H   0.8378821782E+00  0.2431367829E+01  0.3539695753E+01
O   0.1493971416E+01  0.3249295611E+01  0.6888126055E+00
H   0.7416077517E+00  0.3717935923E+01  0.3057371731E+00
H   0.1794557734E+01  0.2643149830E+01 -0.3817241463E-01
O  -0.1063171203E+01 -0.4425786557E+01  0.4534956297E+00
H  -0.8980101042E+00 -0.5323829427E+01  0.7801451843E+00
H  -0.1151583091E+01 -0.3858919774E+01  0.1276959981E+01
O   0.1347741340E+01 -0.2179108361E+01 -0.3926248052E+01
H   0.4803627209E+00 -0.2047218819E+01 -0.4398898250E+01
H   0.1127653745E+01 -0.2633573500E+01 -0.3121740207E+01
O  -0.1141483293E+01 -0.1322509419E+01 -0.4865338156E+01
H  -0.8980454778E+00 -0.3494780417E+00 -0.4772409695E+01
H  -0.1454726098E+01 -0.1447222280E+01 -0.5764171241E+01
O  -0.2091452995E+01  0.3053127677E+01  0.1872913782E+01
H  -0.1296846856E+01  0.2772563732E+01  0.2355842016E+01
H  -0.2601169873E+01  0.2218698835E+01  0.1742943818E+01
O  -0.9885646190E+00  0.4145311378E+01 -0.2380537833E+00
H  -0.1246118150E+01  0.5053886707E+01 -0.2228690638E+00
H  -0.1494618779E+01  0.3721888582E+01  0.5404766343E+00
O  -0.2261682220E+01 -0.2103788188E+01 -0.2495173922E+01
H  -0.2276660633E+01 -0.1217789737E+01 -0.2053006067E+01
H  -0.2093925255E+01 -0.1905285695E+01 -0.3450290378E+01
O  -0.1544317133E+01 -0.2979630448E+01  0.2600055872E+01
H  -0.2438776546E+01 -0.2675626374E+01  0.2417130182E+01
H  -0.9966808828E+00 -0.2153339422E+01  0.2697760861E+01
O  -0.4290750830E+00 -0.4795849414E+00  0.2251753943E+01
H   0.8862898716E-02 -0.6242633070E+00  0.1385655301E+01
H  -0.2895782313E-01  0.3418081249E+00  0.2610558055E+01
          60
 Time step:           2
O   0.4063871849E+00 -0.6908556942E+00 -0.2823956766E+00
H  -0.4784837230E+00 -0.3756206440E+00 -0.5959301586E+00
H   0.4754523618E+00 -0.1577260509E+01 -0.6638345588E+00
O   0.1652823757E+01  0.1414144111E+01 -0.1363971782E+01
H   0.1327686558E+01  0.5793817550E+00 -0.8927046755E+00
H   0.2088407681E+01  0.1116350302E+01 -0.2164380563E+01
O   0.2223916082E+01  0.2918756464E+00 -0.3796428133E+01
H   0.3029240361E+01  0.3170918171E+00 -0.4317316196E+01
H   0.1942675247E+01 -0.6626562805E+00 -0.3747665099E+01
O   0.1312230672E+00 -0.3008045437E+01 -0.1579973390E+01
H  -0.7577600014E+00 -0.2751898639E+01 -0.1947889318E+01
H  -0.5818430798E-01 -0.3670667059E+01 -0.9163471555E+00
O  -0.2813183860E+01  0.4411469706E+00  0.1334651524E+01
H  -0.3428259047E+01 -0.3073248831E+00  0.1465669935E+01
H  -0.1965333662E+01  0.9508396539E-01  0.1761803440E+01
O  -0.3959304248E+01 -0.2041310968E+01  0.1535524610E+01
H  -0.3841041485E+01 -0.2577149107E+01  0.6986773507E+00
H  -0.4806824924E+01 -0.2329901864E+01  0.1915996927E+01
O  -0.3537450211E+01 -0.3583469492E+01 -0.5409984787E+00
H  -0.2738468660E+01 -0.4069334737E+01 -0.2783218149E+00
H  -0.3290247130E+01 -0.3134087660E+01 -0.1372269274E+01
O  -0.7530601169E+00  0.2314416622E+01 -0.2245254977E+01
H  -0.9717922795E+00  0.3080562178E+01 -0.1739572433E+01
H   0.1462419209E+00  0.2047033427E+01 -0.1936661388E+01
O  -0.1957405586E+01  0.1992504531E+00 -0.1171071085E+01
H  -0.1668818349E+01  0.1065107207E+01 -0.1609347362E+01
H  -0.2411199909E+01  0.3851530059E+00 -0.3007974805E+00
O  -0.2774362600E+00  0.1150238181E+01 -0.4732349973E+01
H   0.6455013405E+00  0.9773445929E+00 -0.4537039934E+01
H  -0.5809460466E+00  0.1725857918E+01 -0.4014912347E+01
O   0.3731633551E+00  0.2085690733E+01  0.2762240848E+01
H   0.8786177741E+00  0.2506209044E+01  0.1988523689E+01
H   0.8598395216E+00  0.2439863760E+01  0.3555340786E+01
O   0.1499219073E+01  0.3255619223E+01  0.7006083258E+00
H   0.7139656617E+00  0.3710324315E+01  0.3134003355E+00
H   0.1782358562E+01  0.2641254525E+01 -0.2722759499E-01
O  -0.1060195793E+01 -0.4423118652E+01  0.4529552416E+00
H  -0.9131834090E+00 -0.5310581607E+01  0.7696603750E+00
H  -0.1131791260E+01 -0.3830115069E+01  0.1298287416E+01
O   0.1351551420E+01 -0.2184585953E+01 -0.3932422763E+01
H   0.4734024539E+00 -0.2039735184E+01 -0.4378843170E+01
H   0.1159795907E+01 -0.2674228238E+01 -0.3116152149E+01
O  -0.1138535706E+01 -0.1329277932E+01 -0.4863996528E+01
H  -0.9132327178E+00 -0.3542394049E+00 -0.4800000805E+01
H  -0.1425792986E+01 -0.1470952782E+01 -0.5748243058E+01
O  -0.2090993075E+01  0.3056160301E+01  0.1873716564E+01
H  -0.1291411860E+01  0.2780132169E+01  0.2358505776E+01
H  -0.2584223826E+01  0.2199552014E+01  0.1731787773E+01
O  -0.9895049270E+00  0.4143785808E+01 -0.2385101497E+00
H  -0.1240978912E+01  0.5111129058E+01 -0.2638592550E+00
H  -0.1507566645E+01  0.3710902083E+01  0.5297748324E+00
O  -0.2264182004E+01 -0.2110963960E+01 -0.2496128717E+01
H  -0.2288444729E+01 -0.1223432292E+01 -0.2070924433E+01
H  -0.2070550052E+01 -0.1950257194E+01 -0.3411059426E+01
O  -0.1537339565E+01 -0.2983332324E+01  0.2594358199E+01
H  -0.2494314385E+01 -0.2694418736E+01  0.2440952934E+01
H  -0.1065231823E+01 -0.2166396466E+01  0.2683868563E+01
O  -0.4265976683E+00 -0.4772808076E+00  0.2250588479E+01
H   0.2176477703E-01 -0.6268293729E+00  0.1389353148E+01
H  -0.4925364239E-01  0.3246382128E+00  0.2597350235E+01
          60
 Time step:           2
O   0.4122823364E+00 -0.6851395443E+00 -0.2818947514E+00
H  -0.4677596547E+00 -0.3546939332E+00 -0.6217574639E+00
H   0.4920081900E+00 -0.1592824185E+01 -0.6762937749E+00
O   0.1662884083E+01  0.1417435574E+01 -0.1364835794E+01
H   0.1338119353E+01  0.5959957127E+00 -0.8912849851E+00
H   0.2073592380E+01  0.1075244980E+01 -0.2192347140E+01
O   0.2218753623E+01  0.2889193834E+00 -0.3796547486E+01
H   0.3045073176E+01  0.3051170117E+00 -0.4310131837E+01
H   0.1929145975E+01 -0.6709068512E+00 -0.3777100209E+01
O   0.1294664772E+00 -0.3012182456E+01 -0.1575823390E+01
H  -0.7771346527E+00 -0.2782288475E+01 -0.1937648725E+01
H  -0.9258331259E-01 -0.3680497393E+01 -0.8651809732E+00
O  -0.2815314244E+01  0.4428999818E+00  0.1339749031E+01
H  -0.3438434865E+01 -0.2866358685E+00  0.1444671144E+01
H  -0.1969470033E+01  0.1173551930E+00  0.1747643784E+01
O  -0.3955868689E+01 -0.2047153315E+01  0.1546782414E+01
H  -0.3838690548E+01 -0.2564363080E+01  0.6655182926E+00
H  -0.4807005793E+01 -0.2280179038E+01  0.1889260030E+01
O  -0.3546291478E+01 -0.3585099016E+01 -0.5406038936E+00
H  -0.2712778056E+01 -0.4058448599E+01 -0.2791908827E+00
H  -0.3248064606E+01 -0.3138846425E+01 -0.1369022431E+01
O  -0.7489456141E+00  0.2312998623E+01 -0.2250767651E+01
H  -0.9164451659E+00  0.3094360358E+01 -0.1740628162E+01
H   0.1557962440E+00  0.2030197294E+01 -0.1944939305E+01
O  -0.1955163399E+01  0.1953327325E+00 -0.1173139037E+01
H  -0.1666201758E+01  0.1056448751E+01 -0.1592009324E+01
H  -0.2391114719E+01  0.3922752401E+00 -0.3171396450E+00
O  -0.2742701810E+00  0.1153053738E+01 -0.4737567042E+01
H   0.6553833707E+00  0.9927051235E+00 -0.4519831414E+01
H  -0.6120325266E+00  0.1680893968E+01 -0.3993062375E+01
O   0.3784970147E+00  0.2092070902E+01  0.2765153510E+01
H   0.8756570951E+00  0.2480512770E+01  0.1981818948E+01
H   0.8163794858E+00  0.2422396714E+01  0.3512748999E+01
O   0.1486774085E+01  0.3245285821E+01  0.6925844656E+00
H   0.7056789040E+00  0.3717428969E+01  0.3102655905E+00
H   0.1815575880E+01  0.2649761921E+01 -0.1033319331E-01
O  -0.1065773435E+01 -0.4421312378E+01  0.4490018927E+00
H  -0.9240685373E+00 -0.5321403612E+01  0.7613818188E+00
H  -0.1148192489E+01 -0.3841373851E+01  0.1281505830E+01
O   0.1357762825E+01 -0.2187934698E+01 -0.3932870564E+01
H   0.4881846124E+00 -0.2058198055E+01 -0.4392723170E+01
H   0.1131051294E+01 -0.2653901284E+01 -0.3110170042E+01
O  -0.1135641757E+01 -0.1326685009E+01 -0.4867099903E+01
H  -0.8905326080E+00 -0.3380268935E+00 -0.4786444988E+01
H  -0.1435114326E+01 -0.1475971075E+01 -0.5734491120E+01
O  -0.2096207653E+01  0.3062025849E+01  0.1874543533E+01
H  -0.1291970001E+01  0.2765712149E+01  0.2387730175E+01
H  -0.2585442169E+01  0.2207012189E+01  0.1726556796E+01
O  -0.9920818076E+00  0.4149342022E+01 -0.2364655874E+00
H  -0.1234258211E+01  0.5073443928E+01 -0.2315035878E+00
H  -0.1493592706E+01  0.3713135034E+01  0.5351206654E+00
O  -0.2264306496E+01 -0.2111406233E+01 -0.2491761333E+01
H  -0.2270979978E+01 -0.1229606643E+01 -0.2081011569E+01
H  -0.2048394695E+01 -0.1909428024E+01 -0.3436579336E+01
O  -0.1546486799E+01 -0.2981496452E+01  0.2594709127E+01
H  -0.2480471997E+01 -0.2689074218E+01  0.2388042676E+01
H  -0.1071966727E+01 -0.2167467287E+01  0.2705484780E+01
O  -0.4266686502E+00 -0.4768314560E+00  0.2255287490E+01
H   0.1754256163E-01 -0.6511570350E+00  0.1379865716E+01
H  -0.6306659037E-04  0.3259300753E+00  0.2625929234E+01
          60
 Time step:           2
O   0.4075267917E+00 -0.6945498412E+00 -0.2743702738E+00
H  -0.4175689104E+00 -0.3624479217E+00 -0.6122724275E+00
H   0.5178052231E+00 -0.1594266403E+01 -0.6688581057E+00
O   0.1652021585E+01  0.1410435685E+01 -0.1373628554E+01
H   0.1393895195E+01  0.5961479108E+00 -0.8847842792E+00
H   0.2072281212E+01  0.1091862456E+01 -0.2190545402E+01
O   0.2218162771E+01  0.2928188644E+00 -0.3804152156E+01
H   0.3024291049E+01  0.3290109475E+00 -0.4330511315E+01
H   0.1917917999E+01 -0.6886312563E+00 -0.3749555064E+01
O   0.1271674055E+00 -0.3006274837E+01 -0.1574422137E+01
H  -0.7542151157E+00 -0.2742743104E+01 -0.1937916577E+01
H  -0.7314186493E-01 -0.3686311683E+01 -0.9019191275E+00
O  -0.2807988190E+01  0.4440492099E+00  0.1333447201E+01
H  -0.3424148409E+01 -0.3106680117E+00  0.1469790884E+01
H  -0.1961611685E+01  0.9961338434E-01  0.1735462513E+01
O  -0.3962592931E+01 -0.2045931284E+01  0.1537413410E+01
H  -0.3850322692E+01 -0.2562132125E+01  0.6720601213E+00
H  -0.4802579646E+01 -0.2345628738E+01  0.1918398944E+01
O  -0.3541487808E+01 -0.3585591612E+01 -0.5394375922E+00
H  -0.2707549312E+01 -0.4053480562E+01 -0.2809824801E+00
H  -0.3314893280E+01 -0.3129718872E+01 -0.1359201304E+01
O  -0.7433012187E+00  0.2304494276E+01 -0.2245597354E+01
H  -0.9359593055E+00  0.3094635231E+01 -0.1732910469E+01
H   0.1384263068E+00  0.2041508130E+01 -0.1962986478E+01
O  -0.1954571507E+01  0.1921446597E+00 -0.1175925241E+01
H  -0.1672758043E+01  0.1025346139E+01 -0.1598604008E+01
H  -0.2410631810E+01  0.4001377713E+00 -0.3111280403E+00
O  -0.2699425544E+00  0.1146992863E+01 -0.4733019960E+01
H   0.6760975760E+00  0.9623088805E+00 -0.4525783108E+01
H  -0.5947512689E+00  0.1697975952E+01 -0.4007136447E+01
O   0.3785346128E+00  0.2095696700E+01  0.2770294454E+01
H   0.8751007792E+00  0.2481353198E+01  0.1995804020E+01
H   0.8253626918E+00  0.2423728427E+01  0.3547584875E+01
O   0.1497578184E+01  0.3254505117E+01  0.6932477876E+00
H   0.7085563383E+00  0.3723142171E+01  0.3276542752E+00
H   0.1800729963E+01  0.2664110349E+01 -0.2614020462E-01
O  -0.1061300817E+01 -0.4414170293E+01  0.4513734569E+00
H  -0.9340349186E+00 -0.5356050652E+01  0.7655702431E+00
H  -0.1150634633E+01 -0.3867717911E+01  0.1271286465E+01
O   0.1350090421E+01 -0.2186231037E+01 -0.3934897904E+01