          60
Time step:                   1 Sim. Time [au]          20.00
O     0.40826740E+00   -0.69335423E+00   -0.27771354E+00
H    -0.47135734E+00   -0.36517740E+00   -0.60988058E+00
H     0.48553284E+00   -0.15907497E+01   -0.70714767E+00
O     0.16572982E+01    0.14092711E+01   -0.13640487E+01
H     0.13533900E+01    0.57552995E+00   -0.93246321E+00
H     0.21002913E+01    0.11111485E+01   -0.21862287E+01
O     0.22191356E+01    0.29334895E+00   -0.38000535E+01
H     0.30340701E+01    0.32544280E+00   -0.43216558E+01
H     0.19401955E+01   -0.67299001E+00   -0.37813081E+01
O     0.12788410E+00   -0.30105705E+01   -0.15788701E+01
H    -0.76385361E+00   -0.27433639E+01   -0.19450737E+01
H    -0.91353972E-01   -0.36875689E+01   -0.88795165E+00
O    -0.28102071E+01    0.43318486E+00    0.13382233E+01
H    -0.34427283E+01   -0.31517771E+00    0.14586036E+01
H    -0.19659993E+01    0.95640084E-01    0.17181256E+01
O    -0.39617403E+01   -0.20434872E+01    0.15439160E+01
H    -0.38550328E+01   -0.25635822E+01    0.67773558E+00
H    -0.48149487E+01   -0.23075845E+01    0.18962675E+01
O    -0.35396893E+01   -0.35864933E+01   -0.54176715E+00
H    -0.27249132E+01   -0.40441135E+01   -0.25873156E+00
H    -0.32769778E+01   -0.31281003E+01   -0.13778251E+01
O    -0.74390513E+00    0.23115127E+01   -0.22485569E+01
H    -0.96205921E+00    0.31207265E+01   -0.17313009E+01
H     0.16534124E+00    0.20431104E+01   -0.19360841E+01
O    -0.19529224E+01    0.19868088E+00   -0.11710515E+01
H    -0.16652486E+01    0.10510959E+01   -0.15981338E+01
H    -0.24021449E+01    0.39512193E+00   -0.30779826E+00
O    -0.27413320E+00    0.11493049E+01   -0.47348664E+01
H     0.67778713E+00    0.10021451E+01   -0.45203298E+01
H    -0.58573568E+00    0.17120520E+01   -0.40055872E+01
O     0.37017311E+00    0.20947777E+01    0.27678544E+01
H     0.88141397E+00    0.24578047E+01    0.19802643E+01
H     0.83352149E+00    0.24312296E+01    0.35440471E+01
O     0.14934538E+01    0.32494811E+01    0.69169281E+00
H     0.73427261E+00    0.37210985E+01    0.31256131E+00
H     0.17899127E+01    0.26457041E+01   -0.30546576E-01
O    -0.10619613E+01   -0.44245951E+01    0.45260366E+00
H    -0.90408743E+00   -0.53232755E+01    0.77280170E+00
H    -0.11488148E+01   -0.38577561E+01    0.12786155E+01
O     0.13497933E+01   -0.21800253E+01   -0.39296117E+01
H     0.48483428E+00   -0.20456604E+01   -0.43889599E+01
H     0.11273643E+01   -0.26350988E+01   -0.31103135E+01
O    -0.11408000E+01   -0.13237070E+01   -0.48644818E+01
H    -0.89837986E+00   -0.34997246E+00   -0.47834756E+01
H    -0.14529707E+01   -0.14499520E+01   -0.57663584E+01
O    -0.20924173E+01    0.30544300E+01    0.18745043E+01
H    -0.12958942E+01    0.27740843E+01    0.23634579E+01
H    -0.25960713E+01    0.22211544E+01    0.17350368E+01
O    -0.98846185E+00    0.41455307E+01   -0.23940512E+00
H    -0.12483007E+01    0.50599258E+01   -0.23481007E+00
H    -0.14936721E+01    0.37221029E+01    0.53091468E+00
O    -0.22617212E+01   -0.21051909E+01   -0.24940532E+01
H    -0.22795425E+01   -0.12190046E+01   -0.20550056E+01
H    -0.20862997E+01   -0.19100662E+01   -0.34443729E+01
O    -0.15442307E+01   -0.29806068E+01    0.25978456E+01
H    -0.24460375E+01   -0.26764891E+01    0.24108967E+01
H    -0.10067982E+01   -0.21537627E+01    0.26948250E+01
O    -0.42979697E+00   -0.47957547E+00    0.22530844E+01
H     0.12434643E-01   -0.62765526E+00    0.13847010E+01
H    -0.26249879E-01    0.34071124E+00    0.26131194E+01
          60
Time step:                   1 Sim. Time [au]          20.00
O     0.40796402E+00   -0.69150979E+00   -0.28038937E+00
H    -0.47343655E+00   -0.37198687E+00   -0.60599708E+00
H     0.48131957E+00   -0.15829279E+01   -0.68036745E+00
O     0.16548893E+01    0.14121024E+01   -0.13641065E+01
H     0.13391620E+01    0.57898800E+00   -0.90655812E+00
H     0.20903599E+01    0.11116185E+01   -0.21792135E+01
O     0.22213701E+01    0.29270204E+00   -0.37976956E+01
H     0.30300455E+01    0.31973836E+00   -0.43184952E+01
H     0.19430412E+01   -0.66839380E+00   -0.37609018E+01
O     0.12949405E+00   -0.30091468E+01   -0.15795484E+01
H    -0.75867881E+00   -0.27482533E+01   -0.19423289E+01
H    -0.72006489E-01   -0.36775245E+01   -0.90549320E+00
O    -0.28123278E+01    0.43793593E+00    0.13375856E+01
H    -0.34350544E+01   -0.30901103E+00    0.14626003E+01
H    -0.19653978E+01    0.96416241E-01    0.17464205E+01
O    -0.39608874E+01   -0.20427474E+01    0.15392047E+01
H    -0.38463293E+01   -0.25712707E+01    0.69358098E+00
H    -0.48122795E+01   -0.23186378E+01    0.19084950E+01
O    -0.35386259E+01   -0.35846465E+01   -0.54122230E+00
H    -0.27311801E+01   -0.40578125E+01   -0.26921338E+00
H    -0.32870620E+01   -0.31325899E+01   -0.13720938E+01
O    -0.74870906E+00    0.23126169E+01   -0.22474009E+01
H    -0.96265697E+00    0.30993293E+01   -0.17312385E+01
H     0.15323852E+00    0.20433848E+01   -0.19390486E+01
O    -0.19561476E+01    0.19860968E+00   -0.11714847E+01
H    -0.16689931E+01    0.10571783E+01   -0.16025826E+01
H    -0.24060778E+01    0.38977387E+00   -0.30361716E+00
O    -0.27490537E+00    0.11498239E+01   -0.47334983E+01
H     0.65988889E+00    0.98756854E+00   -0.45330166E+01
H    -0.58606690E+00    0.17170682E+01   -0.40051930E+01
O     0.37261869E+00    0.20898065E+01    0.27643603E+01
H     0.87615083E+00    0.24849447E+01    0.19818566E+01
H     0.84490645E+00    0.24352633E+01    0.35512531E+01
O     0.14961721E+01    0.32525329E+01    0.69755842E+00
H     0.72045785E+00    0.37174622E+01    0.31613768E+00
H     0.17835713E+01    0.26448870E+01   -0.24852222E-01
O    -0.10604246E+01   -0.44232379E+01    0.45229047E+00
H    -0.91159516E+00   -0.53167475E+01    0.76755109E+00
H    -0.11388145E+01   -0.38434705E+01    0.12892470E+01
O     0.13517021E+01   -0.21828184E+01   -0.39326639E+01
H     0.48124744E+00   -0.20422605E+01   -0.43790005E+01
H     0.11437387E+01   -0.26552516E+01   -0.31075307E+01
O    -0.11393496E+01   -0.13270648E+01   -0.48639303E+01
H    -0.90614418E+00   -0.35211232E+00   -0.47972692E+01
H    -0.14384235E+01   -0.14619734E+01   -0.57579854E+01
O    -0.20921552E+01    0.30560505E+01    0.18749183E+01
H    -0.12932037E+01    0.27776663E+01    0.23649549E+01
H    -0.25875976E+01    0.22116924E+01    0.17297139E+01
O    -0.98891280E+00    0.41448493E+01   -0.23958706E+00
H    -0.12457399E+01    0.50884159E+01   -0.25469154E+00
H    -0.15002353E+01    0.37166576E+01    0.52599520E+00
O    -0.22629780E+01   -0.21087856E+01   -0.24945444E+01
H    -0.22855375E+01   -0.12219035E+01   -0.20641300E+01
H    -0.20746973E+01   -0.19323203E+01   -0.34252742E+01
O    -0.15406494E+01   -0.29824333E+01    0.25949910E+01
H    -0.24742563E+01   -0.26858419E+01    0.24223650E+01
H    -0.10413571E+01   -0.21602726E+01    0.26881856E+01
O    -0.42855557E+00   -0.47842824E+00    0.22525789E+01
H     0.18934228E-01   -0.62929100E+00    0.13860002E+01
H    -0.36799862E-01    0.33215698E+00    0.26065055E+01
          60
Time step:                   1 Sim. Time [au]          20.00
O     0.41091936E+00   -0.68857490E+00   -0.28025281E+00
H    -0.46794133E+00   -0.36186413E+00   -0.61885597E+00
H     0.48957138E+00   -0.15904358E+01   -0.68654182E+00
O     0.16599899E+01    0.14138455E+01   -0.13644340E+01
H     0.13444590E+01    0.58735059E+00   -0.90570957E+00
H     0.20830829E+01    0.10910997E+01   -0.21930312E+01
O     0.22187513E+01    0.29118919E+00   -0.37976418E+01
H     0.30380265E+01    0.31345520E+00   -0.43146756E+01
H     0.19362639E+01   -0.67236454E+00   -0.37757471E+01
O     0.12859998E+00   -0.30111817E+01   -0.15775194E+01
H    -0.76844739E+00   -0.27636197E+01   -0.19372469E+01
H    -0.89631843E-01   -0.36821111E+01   -0.87958108E+00
O    -0.28133816E+01    0.43895031E+00    0.13401783E+01
H    -0.34402551E+01   -0.29845840E+00    0.14519710E+01
H    -0.19674861E+01    0.10758152E+00    0.17396409E+01
O    -0.39591854E+01   -0.20456523E+01    0.15449056E+01
H    -0.38452215E+01   -0.25651267E+01    0.67718173E+00
H    -0.48124273E+01   -0.22937098E+01    0.18949704E+01
O    -0.35430732E+01   -0.35853761E+01   -0.54103942E+00
H    -0.27182465E+01   -0.40527228E+01   -0.26970296E+00
H    -0.32655476E+01   -0.31351692E+01   -0.13704978E+01
O    -0.74657468E+00    0.23119533E+01   -0.22501828E+01
H    -0.93488756E+00    0.31057037E+01   -0.17317768E+01
H     0.15818423E+00    0.20349736E+01   -0.19429732E+01
O    -0.19549887E+01    0.19665319E+00   -0.11724781E+01
H    -0.16676393E+01    0.10530761E+01   -0.15939757E+01
H    -0.23959851E+01    0.39317994E+00   -0.31172444E+00
O    -0.27331163E+00    0.11512507E+01   -0.47361247E+01
H     0.66507716E+00    0.99477109E+00   -0.45245135E+01
H    -0.60163200E+00    0.16946738E+01   -0.39940951E+01
O     0.37525526E+00    0.20928386E+01    0.27657156E+01
H     0.87467869E+00    0.24727193E+01    0.19783914E+01
H     0.82292147E+00    0.24266785E+01    0.35297281E+01
O     0.14898529E+01    0.32474294E+01    0.69359274E+00
H     0.71644050E+00    0.37209718E+01    0.31441978E+00
H     0.18002956E+01    0.26491202E+01   -0.16241203E-01
O    -0.10632241E+01   -0.44222990E+01    0.45030367E+00
H    -0.91693378E+00   -0.53219156E+01    0.76338199E+00
H    -0.11471684E+01   -0.38486920E+01    0.12811464E+01
O     0.13548257E+01   -0.21845780E+01   -0.39329061E+01
H     0.48866843E+00   -0.20514710E+01   -0.43857121E+01
H     0.11290895E+01   -0.26455880E+01   -0.31045548E+01
O    -0.11379263E+01   -0.13258663E+01   -0.48655591E+01
H    -0.89469041E+00   -0.34406316E+00   -0.47908284E+01
H    -0.14432817E+01   -0.14649061E+01   -0.57506793E+01
O    -0.20947663E+01    0.30590464E+01    0.18753442E+01
H    -0.12935449E+01    0.27705655E+01    0.23794890E+01
H    -0.25883177E+01    0.22151628E+01    0.17272957E+01
O    -0.99019163E+00    0.41476105E+01   -0.23854282E+00
H    -0.12423792E+01    0.50699975E+01   -0.23825031E+00
H    -0.14931617E+01    0.37176309E+01    0.52894603E+00
O    -0.22630332E+01   -0.21091074E+01   -0.24924244E+01
H    -0.22767132E+01   -0.12250605E+01   -0.20694152E+01
H    -0.20637119E+01   -0.19123169E+01   -0.34381690E+01
O    -0.15452910E+01   -0.29815693E+01    0.25951047E+01
H    -0.24670459E+01   -0.26834657E+01    0.23957961E+01
H    -0.10444118E+01   -0.21609630E+01    0.26989938E+01
O    -0.42860344E+00   -0.47818138E+00    0.22549511E+01
H     0.16767213E-01   -0.64149913E+00    0.13808338E+01
H    -0.11865462E-01    0.33256964E+00    0.26204429E+01
          60
Time step:                   1 Sim. Time [au]          20.00
O     0.40856551E+00   -0.69343615E+00   -0.27635779E+00
H    -0.44296419E+00   -0.36589847E+00   -0.61377858E+00
H     0.50233828E+00   -0.15912018E+01   -0.68321805E+00
O     0.16546038E+01    0.14102405E+01   -0.13689090E+01
H     0.13721870E+01    0.58739827E+00   -0.90293860E+00
H     0.20824369E+01    0.10997198E+01   -0.21919596E+01
O     0.22184545E+01    0.29317684E+00   -0.38015754E+01
H     0.30277756E+01    0.32563524E+00   -0.43252105E+01
H     0.19307450E+01   -0.68145573E+00   -0.37618303E+01
O     0.12747019E+00   -0.30081495E+01   -0.15768387E+01
H    -0.75713350E+00   -0.27430948E+01   -0.19375636E+01
H    -0.80050760E-01   -0.36850488E+01   -0.89853256E+00
O    -0.28097623E+01    0.43954765E+00    0.13369234E+01
H    -0.34332213E+01   -0.31083287E+00    0.14649501E+01
H    -0.19636246E+01    0.98459810E-01    0.17329309E+01
O    -0.39625204E+01   -0.20450307E+01    0.15400961E+01
H    -0.38509246E+01   -0.25640131E+01    0.68058845E+00
H    -0.48102678E+01   -0.23277300E+01    0.19098407E+01
O    -0.35407018E+01   -0.35855957E+01   -0.54046602E+00
H    -0.27156703E+01   -0.40501519E+01   -0.27036637E+00
H    -0.32989125E+01   -0.31305553E+01   -0.13656073E+01
O    -0.74378089E+00    0.23075845E+01   -0.22475152E+01
H    -0.94460569E+00    0.31058516E+01   -0.17277659E+01
H     0.14961934E+00    0.20407787E+01   -0.19520146E+01
O    -0.19547032E+01    0.19501702E+00   -0.11738628E+01
H    -0.16708733E+01    0.10371079E+01   -0.15974338E+01
H    -0.24056290E+01    0.39721924E+00   -0.30856683E+00
O    -0.27117472E+00    0.11481345E+01   -0.47337838E+01
H     0.67531943E+00    0.97904392E+00   -0.45274498E+01
H    -0.59309484E+00    0.17034905E+01   -0.40013925E+01
O     0.37527516E+00    0.20946570E+01    0.27683815E+01
H     0.87434474E+00    0.24732376E+01    0.19855454E+01
H     0.82736270E+00    0.24273912E+01    0.35478689E+01
O     0.14952151E+01    0.32521978E+01    0.69390622E+00
H     0.71781344E+00    0.37239734E+01    0.32322687E+00
H     0.17929634E+01    0.26565016E+01   -0.24598358E-01
O    -0.10610045E+01   -0.44186292E+01    0.45155994E+00
H    -0.92184657E+00   -0.53397141E+01    0.76573955E+00
H    -0.11483855E+01   -0.38622531E+01    0.12759063E+01
O     0.13510465E+01   -0.21837078E+01   -0.39338849E+01
H     0.50196704E+00   -0.20298255E+01   -0.43879275E+01
H     0.11185544E+01   -0.26409197E+01   -0.31044284E+01
O    -0.11384161E+01   -0.13259824E+01   -0.48613411E+01
H    -0.89921236E+00   -0.35611711E+00   -0.47831851E+01
H    -0.14524956E+01   -0.14511153E+01   -0.57675400E+01
O    -0.20954269E+01    0.30585750E+01    0.18748228E+01
H    -0.12985038E+01    0.27721676E+01    0.23758784E+01
H    -0.25927171E+01    0.22105923E+01    0.17180174E+01
O    -0.98864996E+00    0.41466768E+01   -0.24064515E+00
H    -0.12567860E+01    0.50859627E+01   -0.25844369E+00
H    -0.15060497E+01    0.37299192E+01    0.51317199E+00
O    -0.22602771E+01   -0.21097296E+01   -0.24909555E+01
H    -0.22896640E+01   -0.12116417E+01   -0.20604524E+01
H    -0.20771358E+01   -0.19185114E+01   -0.34241736E+01
O    -0.15458099E+01   -0.29795860E+01    0.25968488E+01
H    -0.24374314E+01   -0.26774983E+01    0.24090758E+01
H    -0.10264842E+01   -0.21597603E+01    0.26919322E+01
O    -0.43207501E+00   -0.47794106E+00    0.22527042E+01
H     0.75950854E-02   -0.64010557E+00    0.14022296E+01
H    -0.29263544E-01    0.32475722E+00    0.26275452E+01
          60
Time step:                   1 Sim. Time [au]          20.00
O     0.40965888E+00   -0.69211457E+00   -0.27803402E+00
H    -0.46582752E+00   -0.36959280E+00   -0.61008652E+00
H     0.50263571E+00   -0.15917988E+01   -0.69234828E+00
O     0.16589143E+01    0.14117871E+01   -0.13647327E+01
H     0.13583384E+01    0.57685914E+00   -0.92672171E+00
H     0.20882536E+01    0.11146724E+01   -0.21915515E+01
O     0.22167213E+01    0.29005383E+00   -0.37976169E+01
H     0.30327965E+01    0.30414184E+00   -0.43191702E+01
H     0.19440889E+01   -0.67522316E+00   -0.37810119E+01
O     0.12928250E+00   -0.30101529E+01   -0.15780079E+01
H    -0.76036570E+00   -0.27370362E+01   -0.19395999E+01
H    -0.10040914E+00   -0.36771450E+01   -0.88356224E+00
O    -0.28133867E+01    0.43755555E+00    0.13394567E+01
H    -0.34405357E+01   -0.30767099E+00    0.14717240E+01
H    -0.19698938E+01    0.99972090E-01    0.17308419E+01
O    -0.39649317E+01   -0.20456773E+01    0.15398598E+01
H    -0.38401603E+01   -0.25698879E+01    0.69933304E+00
H    -0.48221023E+01   -0.23116210E+01    0.19000686E+01
O    -0.35421072E+01   -0.35810737E+01   -0.54384961E+00
H    -0.27182169E+01   -0.40449495E+01   -0.26826801E+00
H    -0.32885820E+01   -0.31426328E+01   -0.13570789E+01
O    -0.74276429E+00    0.23116522E+01   -0.22507905E+01
H    -0.95875741E+00    0.31122108E+01   -0.17087510E+01
H     0.15521220E+00    0.20395069E+01   -0.19325291E+01
O    -0.19561561E+01    0.19664402E+00   -0.11697284E+01
H    -0.16704342E+01    0.10522744E+01   -0.16022425E+01
H    -0.24071405E+01    0.39661987E+00   -0.30272404E+00
O    -0.27127734E+00    0.11491867E+01   -0.47368686E+01
H     0.67399096E+00    0.97813198E+00   -0.45280803E+01
H    -0.59637669E+00    0.17079675E+01   -0.39756272E+01
O     0.37391117E+00    0.20879270E+01    0.27661813E+01
H     0.86271335E+00    0.24782200E+01    0.19809982E+01
H     0.83012898E+00    0.24341452E+01    0.35438067E+01
O     0.14914612E+01    0.32532507E+01    0.69729178E+00
H     0.71397345E+00    0.37342538E+01    0.30527504E+00
H     0.17935254E+01    0.26546362E+01   -0.15300520E-01
O    -0.10580234E+01   -0.44217997E+01    0.45001334E+00
H    -0.90436446E+00   -0.53187296E+01    0.77818626E+00
H    -0.11535060E+01   -0.38595092E+01    0.12888066E+01
O     0.13565986E+01   -0.21835365E+01   -0.39357432E+01
H     0.49303321E+00   -0.20503469E+01   -0.43719994E+01
H     0.11356957E+01   -0.26428083E+01   -0.31029378E+01
O    -0.11407832E+01   -0.13264190E+01   -0.48641291E+01
H    -0.90244998E+00   -0.35363376E+00   -0.47902320E+01
H    -0.14528148E+01   -0.14619148E+01   -0.57482415E+01
O    -0.20952764E+01    0.30596206E+01    0.18764597E+01
H    -0.13073703E+01    0.27727846E+01    0.23723362E+01
H    -0.25942773E+01    0.22151694E+01    0.17320550E+01
O    -0.98739666E+00    0.41471233E+01   -0.24388013E+00
H    -0.12451288E+01    0.50748931E+01   -0.25475978E+00
H    -0.14800434E+01    0.37311074E+01    0.53095562E+00
O    -0.22643073E+01   -0.21081299E+01   -0.24932927E+01
H    -0.22608443E+01   -0.12104017E+01   -0.20692108E+01
H    -0.20747466E+01   -0.19249494E+01   -0.34383292E+01
O    -0.15432221E+01   -0.29801300E+01    0.25966528E+01
H    -0.24403423E+01   -0.26830910E+01    0.24133851E+01
H    -0.10301540E+01   -0.21521813E+01    0.26947172E+01
O    -0.43172784E+00   -0.48057206E+00    0.22547401E+01
H     0.18312365E-01   -0.63794023E+00    0.13824281E+01
H    -0.21877068E-01    0.33228462E+00    0.26147755E+01
          60
Time step:                   2 Sim. Time [au]          40.00
O     0.40693459E+00   -0.69433577E+00   -0.27716522E+00
H    -0.47413306E+00   -0.36200170E+00   -0.60424797E+00
H     0.48327215E+00   -0.15928008E+01   -0.71797087E+00
O     0.16575090E+01    0.14086110E+01   -0.13636579E+01
H     0.13557427E+01    0.57287037E+00   -0.94499070E+00
H     0.21084702E+01    0.11143704E+01   -0.21787693E+01
O     0.22195110E+01    0.29304805E+00   -0.38010060E+01
H     0.30371165E+01    0.32787431E+00   -0.43231563E+01
H     0.19371933E+01   -0.67204502E+00   -0.37894549E+01
O     0.12803295E+00   -0.30110228E+01   -0.15786055E+01
H    -0.76787817E+00   -0.27430743E+01   -0.19533622E+01
H    -0.96127875E-01   -0.36909270E+01   -0.88014788E+00
O    -0.28089444E+01    0.43170952E+00    0.13361355E+01
H    -0.34435041E+01   -0.31897922E+00    0.14568815E+01
H    -0.19665149E+01    0.94197795E-01    0.17050892E+01
O    -0.39610613E+01   -0.20429645E+01    0.15452275E+01
H    -0.38584023E+01   -0.25614820E+01    0.66658542E+00
H    -0.48122130E+01   -0.23062768E+01    0.18904696E+01
O    -0.35394637E+01   -0.35871434E+01   -0.54213147E+00
H    -0.27263064E+01   -0.40416241E+01   -0.25708450E+00
H    -0.32704309E+01   -0.31253933E+01   -0.13839509E+01
O    -0.74353706E+00    0.23121943E+01   -0.22477604E+01
H    -0.97139959E+00    0.31236186E+01   -0.17397420E+01
H     0.17031773E+00    0.20459862E+01   -0.19303420E+01
O    -0.19510006E+01    0.19928581E+00   -0.11701459E+01
H    -0.16613575E+01    0.10528009E+01   -0.16000875E+01
H    -0.24035983E+01    0.39605500E+00   -0.30949401E+00
O    -0.27592811E+00    0.11492928E+01   -0.47352657E+01
H     0.68107640E+00    0.10066793E+01   -0.45111721E+01
H    -0.57992372E+00    0.17146975E+01   -0.40149465E+01
O     0.36820729E+00    0.20956623E+01    0.27691923E+01
H     0.88907248E+00    0.24518245E+01    0.19849133E+01
H     0.83788218E+00    0.24313678E+01    0.35396958E+01
O     0.14939714E+01    0.32492956E+01    0.68881261E+00
H     0.74160775E+00    0.37179359E+01    0.30573717E+00
H     0.17945577E+01    0.26431498E+01   -0.38172415E-01
O    -0.10631712E+01   -0.44257866E+01    0.45349563E+00
H    -0.89801010E+00   -0.53238294E+01    0.78014518E+00
H    -0.11515831E+01   -0.38589198E+01    0.12769600E+01
O     0.13477413E+01   -0.21791084E+01   -0.39262481E+01
H     0.48036272E+00   -0.20472188E+01   -0.43988982E+01
H     0.11276537E+01   -0.26335735E+01   -0.31217402E+01
O    -0.11414833E+01   -0.13225094E+01   -0.48653382E+01
H    -0.89804548E+00   -0.34947804E+00   -0.47724097E+01
H    -0.14547261E+01   -0.14472223E+01   -0.57641712E+01
O    -0.20914530E+01    0.30531277E+01    0.18729138E+01
H    -0.12968469E+01    0.27725637E+01    0.23558420E+01
H    -0.26011699E+01    0.22186988E+01    0.17429438E+01
O    -0.98856462E+00    0.41453114E+01   -0.23805378E+00
H    -0.12461181E+01    0.50538867E+01   -0.22286906E+00
H    -0.14946188E+01    0.37218886E+01    0.54047663E+00
O    -0.22616822E+01   -0.21037882E+01   -0.24951739E+01
H    -0.22766606E+01   -0.12177897E+01   -0.20530061E+01
H    -0.20939253E+01   -0.19052857E+01   -0.34502904E+01
O    -0.15443171E+01   -0.29796304E+01    0.26000559E+01
H    -0.24387765E+01   -0.26756264E+01    0.24171302E+01
H    -0.99668088E+00   -0.21533394E+01    0.26977609E+01
O    -0.42907508E+00   -0.47958494E+00    0.22517539E+01
H     0.88628987E-02   -0.62426331E+00    0.13856553E+01
H    -0.28957823E-01    0.34180812E+00    0.26105581E+01
          60
Time step:                   2 Sim. Time [au]          40.00
O     0.40638718E+00   -0.69085569E+00   -0.28239568E+00
H    -0.47848372E+00   -0.37562064E+00   -0.59593016E+00
H     0.47545236E+00   -0.15772605E+01   -0.66383456E+00
O     0.16528238E+01    0.14141441E+01   -0.13639718E+01
H     0.13276866E+01    0.57938175E+00   -0.89270468E+00
H     0.20884077E+01    0.11163503E+01   -0.21643806E+01
O     0.22239161E+01    0.29187565E+00   -0.37964281E+01
H     0.30292404E+01    0.31709182E+00   -0.43173162E+01
H     0.19426752E+01   -0.66265628E+00   -0.37476651E+01
O     0.13122307E+00   -0.30080454E+01   -0.15799734E+01
H    -0.75776000E+00   -0.27518986E+01   -0.19478893E+01
H    -0.58184308E-01   -0.36706671E+01   -0.91634716E+00
O    -0.28131839E+01    0.44114697E+00    0.13346515E+01
H    -0.34282590E+01   -0.30732488E+00    0.14656699E+01
H    -0.19653337E+01    0.95083965E-01    0.17618034E+01
O    -0.39593042E+01   -0.20413110E+01    0.15355246E+01
H    -0.38410415E+01   -0.25771491E+01    0.69867735E+00
H    -0.48068249E+01   -0.23299019E+01    0.19159969E+01
O    -0.35374502E+01   -0.35834695E+01   -0.54099848E+00
H    -0.27384687E+01   -0.40693347E+01   -0.27832181E+00
H    -0.32902471E+01   -0.31340877E+01   -0.13722693E+01
O    -0.75306012E+00    0.23144166E+01   -0.22452550E+01
H    -0.97179228E+00    0.30805622E+01   -0.17395724E+01
H     0.14624192E+00    0.20470334E+01   -0.19366614E+01
O    -0.19574056E+01    0.19925045E+00   -0.11710711E+01
H    -0.16688183E+01    0.10651072E+01   -0.16093474E+01
H    -0.24111999E+01    0.38515301E+00   -0.30079748E+00
O    -0.27743626E+00    0.11502382E+01   -0.47323500E+01
H     0.64550134E+00    0.97734459E+00   -0.45370399E+01
H    -0.58094605E+00    0.17258579E+01   -0.40149123E+01
O     0.37316336E+00    0.20856907E+01    0.27622408E+01
H     0.87861777E+00    0.25062090E+01    0.19885237E+01
H     0.85983952E+00    0.24398638E+01    0.35553408E+01
O     0.14992191E+01    0.32556192E+01    0.70060833E+00
H     0.71396566E+00    0.37103243E+01    0.31340034E+00
H     0.17823586E+01    0.26412545E+01   -0.27227595E-01
O    -0.10601958E+01   -0.44231187E+01    0.45295524E+00
H    -0.91318341E+00   -0.53105816E+01    0.76966038E+00
H    -0.11317913E+01   -0.38301151E+01    0.12982874E+01
O     0.13515514E+01   -0.21845860E+01   -0.39324228E+01
H     0.47340245E+00   -0.20397352E+01   -0.43788432E+01
H     0.11597959E+01   -0.26742282E+01   -0.31161521E+01
O    -0.11385357E+01   -0.13292779E+01   -0.48639965E+01
H    -0.91323272E+00   -0.35423940E+00   -0.48000008E+01
H    -0.14257930E+01   -0.14709528E+01   -0.57482431E+01
O    -0.20909931E+01    0.30561603E+01    0.18737166E+01
H    -0.12914119E+01    0.27801322E+01    0.23585058E+01
H    -0.25842238E+01    0.21995520E+01    0.17317878E+01
O    -0.98950493E+00    0.41437858E+01   -0.23851015E+00
H    -0.12409789E+01    0.51111291E+01   -0.26385926E+00
H    -0.15075666E+01    0.37109021E+01    0.52977483E+00
O    -0.22641820E+01   -0.21109640E+01   -0.24961287E+01
H    -0.22884447E+01   -0.12234323E+01   -0.20709244E+01
H    -0.20705501E+01   -0.19502572E+01   -0.34110594E+01
O    -0.15373396E+01   -0.29833323E+01    0.25943582E+01
H    -0.24943144E+01   -0.26944187E+01    0.24409529E+01
H    -0.10652318E+01   -0.21663965E+01    0.26838686E+01
O    -0.42659767E+00   -0.47728081E+00    0.22505885E+01
H     0.21764777E-01   -0.62682937E+00    0.13893531E+01
H    -0.49253642E-01    0.32463821E+00    0.25973502E+01
          60
Time step:                   2 Sim. Time [au]          40.00
O     0.41228234E+00   -0.68513954E+00   -0.28189475E+00
H    -0.46775965E+00   -0.35469393E+00   -0.62175746E+00
H     0.49200819E+00   -0.15928242E+01   -0.67629377E+00
O     0.16628841E+01    0.14174356E+01   -0.13648358E+01
H     0.13381194E+01    0.59599571E+00   -0.89128499E+00
H     0.20735924E+01    0.10752450E+01   -0.21923471E+01
O     0.22187536E+01    0.28891938E+00   -0.37965475E+01
H     0.30450732E+01    0.30511701E+00   -0.43101318E+01
H     0.19291460E+01   -0.67090685E+00   -0.37771002E+01
O     0.12946648E+00   -0.30121825E+01   -0.15758234E+01
H    -0.77713465E+00   -0.27822885E+01   -0.19376487E+01
H    -0.92583313E-01   -0.36804974E+01   -0.86518097E+00
O    -0.28153142E+01    0.44289998E+00    0.13397490E+01
H    -0.34384349E+01   -0.28663587E+00    0.14446711E+01
H    -0.19694700E+01    0.11735519E+00    0.17476438E+01
O    -0.39558687E+01   -0.20471533E+01    0.15467824E+01
H    -0.38386905E+01   -0.25643631E+01    0.66551829E+00
H    -0.48070058E+01   -0.22801790E+01    0.18892600E+01
O    -0.35462915E+01   -0.35850990E+01   -0.54060389E+00
H    -0.27127781E+01   -0.40584486E+01   -0.27919088E+00
H    -0.32480646E+01   -0.31388464E+01   -0.13690224E+01
O    -0.74894561E+00    0.23129986E+01   -0.22507677E+01
H    -0.91644517E+00    0.30943604E+01   -0.17406282E+01
H     0.15579624E+00    0.20301973E+01   -0.19449393E+01
O    -0.19551634E+01    0.19533273E+00   -0.11731390E+01
H    -0.16662018E+01    0.10564488E+01   -0.15920093E+01
H    -0.23911147E+01    0.39227524E+00   -0.31713965E+00
O    -0.27427018E+00    0.11530537E+01   -0.47375670E+01
H     0.65538337E+00    0.99270512E+00   -0.45198314E+01
H    -0.61203253E+00    0.16808940E+01   -0.39930624E+01
O     0.37849701E+00    0.20920709E+01    0.27651535E+01
H     0.87565710E+00    0.24805128E+01    0.19818189E+01
H     0.81637949E+00    0.24223967E+01    0.35127490E+01
O     0.14867741E+01    0.32452858E+01    0.69258447E+00
H     0.70567890E+00    0.37174290E+01    0.31026559E+00
H     0.18155759E+01    0.26497619E+01   -0.10333193E-01
O    -0.10657734E+01   -0.44213124E+01    0.44900189E+00
H    -0.92406854E+00   -0.53214036E+01    0.76138182E+00
H    -0.11481925E+01   -0.38413739E+01    0.12815058E+01
O     0.13577628E+01   -0.21879347E+01   -0.39328706E+01
H     0.48818461E+00   -0.20581981E+01   -0.43927232E+01
H     0.11310513E+01   -0.26539013E+01   -0.31101700E+01
O    -0.11356418E+01   -0.13266850E+01   -0.48670999E+01
H    -0.89053261E+00   -0.33802689E+00   -0.47864450E+01
H    -0.14351143E+01   -0.14759711E+01   -0.57344911E+01
O    -0.20962077E+01    0.30620258E+01    0.18745435E+01
H    -0.12919700E+01    0.27657121E+01    0.23877302E+01
H    -0.25854422E+01    0.22070122E+01    0.17265568E+01
O    -0.99208181E+00    0.41493420E+01   -0.23646559E+00
H    -0.12342582E+01    0.50734439E+01   -0.23150359E+00
H    -0.14935927E+01    0.37131350E+01    0.53512067E+00
O    -0.22643065E+01   -0.21114062E+01   -0.24917613E+01
H    -0.22709800E+01   -0.12296066E+01   -0.20810116E+01
H    -0.20483947E+01   -0.19094280E+01   -0.34365793E+01
O    -0.15464868E+01   -0.29814965E+01    0.25947091E+01
H    -0.24804720E+01   -0.26890742E+01    0.23880427E+01
H    -0.10719667E+01   -0.21674673E+01    0.27054848E+01
O    -0.42666865E+00   -0.47683146E+00    0.22552875E+01
H     0.17542562E-01   -0.65115704E+00    0.13798657E+01
H    -0.63066590E-04    0.32593008E+00    0.26259292E+01
          60
Time step:                   2 Sim. Time [au]          40.00
O     0.40752679E+00   -0.69454984E+00   -0.27437027E+00
H    -0.41756891E+00   -0.36244792E+00   -0.61227243E+00
H     0.51780522E+00   -0.15942664E+01   -0.66885811E+00
O     0.16520216E+01    0.14104357E+01   -0.13736286E+01
H     0.13938952E+01    0.59614791E+00   -0.88478428E+00
H     0.20722812E+01    0.10918625E+01   -0.21905454E+01
O     0.22181628E+01    0.29281886E+00   -0.38041522E+01
H     0.30242910E+01    0.32901095E+00   -0.43305113E+01
H     0.19179180E+01   -0.68863126E+00   -0.37495551E+01
O     0.12716741E+00   -0.30062748E+01   -0.15744221E+01
H    -0.75421512E+00   -0.27427431E+01   -0.19379166E+01
H    -0.73141865E-01   -0.36863117E+01   -0.90191913E+00
O    -0.28079882E+01    0.44404921E+00    0.13334472E+01
H    -0.34241484E+01   -0.31066801E+00    0.14697909E+01
H    -0.19616117E+01    0.99613384E-01    0.17354625E+01
O    -0.39625929E+01   -0.20459313E+01    0.15374134E+01
H    -0.38503227E+01   -0.25621321E+01    0.67206012E+00
H    -0.48025796E+01   -0.23456287E+01    0.19183989E+01
O    -0.35414878E+01   -0.35855916E+01   -0.53943759E+00
H    -0.27075493E+01   -0.40534806E+01   -0.28098248E+00
H    -0.33148933E+01   -0.31297189E+01   -0.13592013E+01
O    -0.74330122E+00    0.23044943E+01   -0.22455974E+01
H    -0.93595931E+00    0.30946352E+01   -0.17329105E+01
H     0.13842631E+00    0.20415081E+01   -0.19629865E+01
O    -0.19545715E+01    0.19214466E+00   -0.11759252E+01
H    -0.16727580E+01    0.10253461E+01   -0.15986040E+01
H    -0.24106318E+01    0.40013777E+00   -0.31112804E+00
O    -0.26994255E+00    0.11469929E+01   -0.47330200E+01
H     0.67609758E+00    0.96230888E+00   -0.45257831E+01
H    -0.59475127E+00    0.16979760E+01   -0.40071364E+01
O     0.37853461E+00    0.20956967E+01    0.27702945E+01
H     0.87510078E+00    0.24813532E+01    0.19958040E+01
H     0.82536269E+00    0.24237284E+01    0.35475849E+01
O     0.14975782E+01    0.32545051E+01    0.69324779E+00