           3
     Units: angs.;  Time step:           1  ;  Sim. Time [au]:          20.00
O    -0.95767917E-03    0.11877717E+00    0.34043831E-04
H     0.74369288E+00   -0.47251481E+00   -0.75485069E-03
H    -0.75468536E+00   -0.48920089E+00    0.85512166E-03
           3
     Units: angs.;  Time step:           2  ;  Sim. Time [au]:          40.00
O    -0.44558442E-02    0.11976004E+00   -0.18499920E-02
H     0.73053780E+00   -0.46683069E+00    0.37934696E-02
H    -0.76280977E+00   -0.48723658E+00   -0.45796685E-02
