3
Units: a.u.;  Time step: 1
O  -0.1539999302E-03  0.1445046186E-04 -0.8662749232E-04
H  -0.1030409026E-02  0.5941015022E-03 -0.1931683634E-04
H  -0.2826607923E-03 -0.4697366521E-03 -0.4173439440E-03
3
Units: a.u.;  Time step: 2
O  -0.4580786258E-03 -0.7497028735E-05 -0.7623905916E-04
H  -0.8645655682E-03  0.1762900195E-03  0.1315165778E-02
H  -0.8093060080E-03  0.2715563037E-03 -0.7097598643E-04
