           3
Units: angs.;  Time step:           1  ;  Sim. Time [au]:          20.00
O    -0.83264557E-03    0.11580555E+00   -0.16159469E-02
H     0.76512142E+00   -0.46179255E+00    0.15602455E-01
H    -0.76930502E+00   -0.47913632E+00    0.17977945E-01
           3
Units: angs.;  Time step:           1  ;  Sim. Time [au]:          20.00
O    -0.36861099E-02    0.11929667E+00   -0.67641336E-03
H     0.74991742E+00   -0.49488551E+00    0.19064427E-01
H    -0.75695415E+00   -0.45880702E+00    0.45330620E-02
           3
Units: angs.;  Time step:           1  ;  Sim. Time [au]:          20.00
O    -0.30611405E-03    0.11739234E+00   -0.16972256E-02
H     0.75836954E+00   -0.48024314E+00    0.45235408E-02
H    -0.75224192E+00   -0.44664808E+00   -0.95390111E-02
           3
Units: angs.;  Time step:           1  ;  Sim. Time [au]:          20.00
O    -0.19415713E-02    0.11586080E+00    0.37498944E-03
H     0.75613758E+00   -0.46392544E+00    0.16538774E-01
H    -0.74298927E+00   -0.47174316E+00    0.27336271E-02
           3
Units: angs.;  Time step:           2  ;  Sim. Time [au]:          40.00
O    -0.33530499E-02    0.11129046E+00   -0.72115271E-03
H     0.77281574E+00   -0.44484560E+00    0.40454295E-01
H    -0.78108094E+00   -0.49382475E+00    0.44013649E-01
           3
Units: angs.;  Time step:           2  ;  Sim. Time [au]:          40.00
O    -0.79490249E-02    0.12114789E+00   -0.22588218E-02
H     0.74489503E+00   -0.51459582E+00    0.50112911E-01
H    -0.76606487E+00   -0.45077666E+00    0.12101824E-01
           3
Units: angs.;  Time step:           2  ;  Sim. Time [au]:          40.00
O    -0.59627238E-03    0.11340099E+00   -0.40878102E-02
H     0.76328159E+00   -0.46977661E+00    0.11668375E-01
H    -0.72289409E+00   -0.42466071E+00   -0.30799138E-01
           3
Units: angs.;  Time step:           2  ;  Sim. Time [au]:          40.00
O    -0.84921467E-02    0.10961402E+00   -0.13773927E-02
H     0.75544809E+00   -0.45657154E+00    0.20830682E-01
H    -0.74168431E+00   -0.48152903E+00    0.28788891E-02
           3
Units: angs.;  Time step:           3  ;  Sim. Time [au]:          60.00
O    -0.62708050E-02    0.10588165E+00   -0.26916498E-02
H     0.78828550E+00   -0.42861167E+00    0.65931625E-01
H    -0.79116119E+00   -0.49168776E+00    0.69509320E-01
           3
Units: angs.;  Time step:           3  ;  Sim. Time [au]:          60.00
O    -0.10224756E-01    0.12271208E+00   -0.33777840E-02
H     0.74438138E+00   -0.54426863E+00    0.61108105E-01
H    -0.76602541E+00   -0.42711218E+00    0.11018561E-01
           3
Units: angs.;  Time step:           3  ;  Sim. Time [au]:          60.00
O     0.29518654E-03    0.11059692E+00   -0.51300205E-02
H     0.77810883E+00   -0.47510404E+00    0.18395764E-01
H    -0.71952083E+00   -0.40958563E+00   -0.53671969E-01
           3
Units: angs.;  Time step:           3  ;  Sim. Time [au]:          60.00
O    -0.67859698E-02    0.10187461E+00   -0.42529990E-02
H     0.75467878E+00   -0.44565359E+00    0.80925664E-02
H    -0.73549258E+00   -0.47224511E+00   -0.54297474E-02
           3
Units: angs.;  Time step:           4  ;  Sim. Time [au]:          80.00
O    -0.54233368E-02    0.10246406E+00   -0.32510106E-02
H     0.79400250E+00   -0.41999216E+00    0.88895793E-01
H    -0.78238531E+00   -0.49661258E+00    0.89110740E-01
           3
Units: angs.;  Time step:           4  ;  Sim. Time [au]:          80.00
O    -0.74577786E-02    0.12548801E+00   -0.32723793E-02
H     0.74822754E+00   -0.53590406E+00    0.74156907E-01
H    -0.77191421E+00   -0.39801558E+00    0.10995934E-01
           3
Units: angs.;  Time step:           4  ;  Sim. Time [au]:          80.00
O     0.11639699E-02    0.11012951E+00   -0.27858322E-02
H     0.78845853E+00   -0.47882469E+00    0.17755595E-01
H    -0.71738955E+00   -0.40983686E+00   -0.80628373E-01
           3
Units: angs.;  Time step:           4  ;  Sim. Time [au]:          80.00
O     0.34293616E-05    0.95204725E-01   -0.54193823E-02
H     0.74645061E+00   -0.43608213E+00    0.41507857E-02
H    -0.72700677E+00   -0.46363663E+00   -0.31297292E-02
           3
Units: angs.;  Time step:           5  ;  Sim. Time [au]:         100.00
O    -0.53240826E-02    0.96823733E-01   -0.76892517E-02
H     0.79683149E+00   -0.42539327E+00    0.12218774E+00
H    -0.77717951E+00   -0.50227612E+00    0.10044578E+00
           3
Units: angs.;  Time step:           5  ;  Sim. Time [au]:         100.00
O    -0.49733277E-02    0.13083762E+00   -0.67859214E-03
H     0.75310852E+00   -0.53286421E+00    0.64075194E-01
H    -0.77892396E+00   -0.38421442E+00   -0.69855852E-02
           3
Units: angs.;  Time step:           5  ;  Sim. Time [au]:         100.00
O     0.22078000E-02    0.10549069E+00   -0.71977694E-04
H     0.81222306E+00   -0.47861081E+00    0.63696127E-02
H    -0.72403296E+00   -0.39887455E+00   -0.11128815E+00
           3
Units: angs.;  Time step:           5  ;  Sim. Time [au]:         100.00
O     0.42581521E-02    0.91615273E-01   -0.68174778E-02
H     0.72176003E+00   -0.43198794E+00    0.15268935E-01
H    -0.71635193E+00   -0.45616560E+00    0.22999105E-02
           3
Units: angs.;  Time step:           6  ;  Sim. Time [au]:         120.00
O    -0.46271169E-02    0.94803619E-01   -0.12464977E-01
H     0.81550812E+00   -0.43056942E+00    0.14554194E+00
H    -0.78187334E+00   -0.50016374E+00    0.10754573E+00
           3
Units: angs.;  Time step:           6  ;  Sim. Time [au]:         120.00
O    -0.32234729E-02    0.13145592E+00    0.26714021E-02
H     0.75328875E+00   -0.52388845E+00    0.34740389E-01
H    -0.79069399E+00   -0.38486685E+00   -0.44112437E-01
           3
Units: angs.;  Time step:           6  ;  Sim. Time [au]:         120.00
O     0.37070028E-02    0.10435986E+00    0.57055214E-02
H     0.82051951E+00   -0.47657742E+00   -0.73684669E-02
H    -0.73837119E+00   -0.38813407E+00   -0.14527914E+00
           3
Units: angs.;  Time step:           6  ;  Sim. Time [au]:         120.00
O     0.13375853E-01    0.90633830E-01   -0.57561127E-02
H     0.70193928E+00   -0.43627801E+00    0.20454420E-01
H    -0.72603080E+00   -0.44534744E+00    0.60825118E-02
           3
Units: angs.;  Time step:           7  ;  Sim. Time [au]:         140.00
O    -0.18755194E-02    0.92978623E-01   -0.16602575E-01
H     0.81985964E+00   -0.44963527E+00    0.16824272E+00
H    -0.78716105E+00   -0.49367153E+00    0.11753076E+00
           3
Units: angs.;  Time step:           7  ;  Sim. Time [au]:         140.00
O    -0.92726722E-03    0.12884599E+00    0.41686074E-02
H     0.75673655E+00   -0.50210321E+00    0.11190474E-01
H    -0.79311915E+00   -0.37750808E+00   -0.54543575E-01
           3
Units: angs.;  Time step:           7  ;  Sim. Time [au]:         140.00
O     0.55954664E-02    0.10385801E+00    0.66081587E-02
H     0.82865618E+00   -0.47211592E+00   -0.16455382E-01
H    -0.75233605E+00   -0.36754188E+00   -0.17673548E+00
           3
Units: angs.;  Time step:           7  ;  Sim. Time [au]:         140.00
O     0.22719332E-01    0.85093802E-01   -0.76435434E-02
H     0.69929388E+00   -0.45614384E+00    0.33271565E-01
H    -0.73163435E+00   -0.43348397E+00    0.54251116E-02
           3
Units: angs.;  Time step:           8  ;  Sim. Time [au]:         160.00
O     0.22751256E-02    0.89823011E-01   -0.19179646E-01
H     0.84316475E+00   -0.47629903E+00    0.18037595E+00
H    -0.79488169E+00   -0.49252390E+00    0.13286762E+00
           3
Units: angs.;  Time step:           8  ;  Sim. Time [au]:         160.00
O     0.73967159E-04    0.12813942E+00    0.26376343E-02
H     0.75456968E+00   -0.48551349E+00   -0.11215400E-01
H    -0.77994384E+00   -0.36045175E+00   -0.56999813E-01
           3
Units: angs.;  Time step:           8  ;  Sim. Time [au]:         160.00
O     0.57171251E-02    0.10586507E+00    0.49168331E-02
H     0.83936251E+00   -0.45747363E+00   -0.13258584E-01
H    -0.77027170E+00   -0.35060793E+00   -0.20388553E+00
           3
Units: angs.;  Time step:           8  ;  Sim. Time [au]:         160.00
O     0.27645981E-01    0.81493143E-01   -0.91686480E-02
H     0.70895981E+00   -0.45814758E+00    0.42556235E-01
H    -0.73527620E+00   -0.41358573E+00    0.10086966E-02
           3
Units: angs.;  Time step:           9  ;  Sim. Time [au]:         180.00
O     0.65742665E-02    0.86591853E-01   -0.21897470E-01
H     0.85797430E+00   -0.50023833E+00    0.18109601E+00
H    -0.80711315E+00   -0.48052892E+00    0.14212412E+00
           3
Units: angs.;  Time step:           9  ;  Sim. Time [au]:         180.00
O    -0.32386335E-03    0.12574809E+00    0.18732573E-02
H     0.73832281E+00   -0.47429975E+00   -0.32630736E-01
H    -0.76854868E+00   -0.36511800E+00   -0.45647439E-01
           3
Units: angs.;  Time step:           9  ;  Sim. Time [au]:         180.00
O     0.52082186E-02    0.10474150E+00    0.26599230E-02
H     0.84921797E+00   -0.43080755E+00   -0.76969956E-02
H    -0.79003215E+00   -0.33505141E+00   -0.21621287E+00
           3
Units: angs.;  Time step:           9  ;  Sim. Time [au]:         180.00
O     0.30097656E-01    0.79978592E-01   -0.12245937E-01
H     0.72529128E+00   -0.45098630E+00    0.34320517E-01
H    -0.74048933E+00   -0.40104810E+00    0.13428792E-01
           3
Units: angs.;  Time step:          10  ;  Sim. Time [au]:         200.00
O     0.88443038E-02    0.85915101E-01   -0.27213695E-01
H     0.87522208E+00   -0.52514504E+00    0.17865529E+00
H    -0.81048129E+00   -0.44432187E+00    0.15965880E+00
           3
Units: angs.;  Time step:          10  ;  Sim. Time [au]:         200.00
O    -0.22310634E-02    0.12123254E+00    0.18694194E-02
H     0.72268092E+00   -0.45332902E+00   -0.67444173E-01
H    -0.76494756E+00   -0.36918664E+00   -0.43646294E-01
           3
Units: angs.;  Time step:          10  ;  Sim. Time [au]:         200.00
O     0.66797192E-02    0.10310257E+00    0.24987616E-02
H     0.82446711E+00   -0.39726237E+00   -0.83959076E-02
H    -0.80949207E+00   -0.32774670E+00   -0.22932649E+00
           3
Units: angs.;  Time step:          10  ;  Sim. Time [au]:         200.00
O     0.30277721E-01    0.80997684E-01   -0.14909341E-01
H     0.75488644E+00   -0.43522663E+00    0.16160646E-01
H    -0.75514532E+00   -0.39117138E+00    0.92137294E-02
           3
Units: angs.;  Time step:          11  ;  Sim. Time [au]:         220.00
O     0.11626323E-01    0.87261585E-01   -0.32384369E-01
H     0.88196851E+00   -0.54811287E+00    0.18239983E+00
H    -0.78933627E+00   -0.41402989E+00    0.19150937E+00
           3
Units: angs.;  Time step:          11  ;  Sim. Time [au]:         220.00
O    -0.61144476E-03    0.11686685E+00    0.39445463E-02
H     0.71039772E+00   -0.42952456E+00   -0.82584875E-01
H    -0.76744382E+00   -0.37846557E+00   -0.46603904E-01
           3
Units: angs.;  Time step:          11  ;  Sim. Time [au]:         220.00
O     0.67495909E-02    0.10132337E+00   -0.31922090E-03
H     0.80382338E+00   -0.36157994E+00   -0.16819672E-01
H    -0.81202122E+00   -0.33656846E+00   -0.22697919E+00
           3
Units: angs.;  Time step:          11  ;  Sim. Time [au]:         220.00
O     0.30598155E-01    0.87556345E-01   -0.16018475E-01
H     0.78759184E+00   -0.41839659E+00    0.37307833E-02
H    -0.77846432E+00   -0.38155157E+00    0.17655756E-01
           3
Units: angs.;  Time step:          12  ;  Sim. Time [au]:         240.00
O     0.10138622E-01    0.88371057E-01   -0.33134040E-01
H     0.88156249E+00   -0.56892001E+00    0.17354635E+00
H    -0.77786008E+00   -0.38725194E+00    0.20884157E+00
           3
Units: angs.;  Time step:          12  ;  Sim. Time [au]:         240.00
O     0.29481997E-02    0.11468169E+00    0.48023973E-02
H     0.69807032E+00   -0.41849147E+00   -0.95313865E-01
H    -0.77841338E+00   -0.38758773E+00   -0.51549216E-01
           3
Units: angs.;  Time step:          12  ;  Sim. Time [au]:         240.00
O     0.51086325E-02    0.99118689E-01   -0.19202043E-02
H     0.80285030E+00   -0.33776323E+00   -0.21443984E-01
H    -0.79312130E+00   -0.34296406E+00   -0.20338584E+00
           3
Units: angs.;  Time step:          12  ;  Sim. Time [au]:         240.00
O     0.32277645E-01    0.90398442E-01   -0.14143362E-01
H     0.81996310E+00   -0.42471682E+00   -0.26343965E-01
H    -0.80711319E+00   -0.38002167E+00    0.39400778E-01
           3
Units: angs.;  Time step:          13  ;  Sim. Time [au]:         260.00
O     0.67750793E-02    0.83510907E-01   -0.37384395E-01
H     0.86523770E+00   -0.57863772E+00    0.14561952E+00
H    -0.78539896E+00   -0.35896563E+00    0.21942188E+00
           3
Units: angs.;  Time step:          13  ;  Sim. Time [au]:         260.00
O     0.36938159E-02    0.11111971E+00    0.94704591E-02
H     0.71462756E+00   -0.42390174E+00   -0.10484806E+00
H    -0.77686219E+00   -0.39811231E+00   -0.61771208E-01
           3
Units: angs.;  Time step:          13  ;  Sim. Time [au]:         260.00
O     0.49773241E-02    0.90473982E-01    0.16889176E-02
H     0.78447897E+00   -0.32671356E+00   -0.50130626E-01
H    -0.78954331E+00   -0.36676475E+00   -0.19790243E+00
           3
Units: angs.;  Time step:          13  ;  Sim. Time [au]:         260.00
O     0.37719531E-01    0.91846029E-01   -0.13370847E-01
H     0.84871358E+00   -0.43716072E+00   -0.57277611E-01
H    -0.80931815E+00   -0.36320555E+00    0.63589742E-01
           3
Units: angs.;  Time step:          14  ;  Sim. Time [au]:         280.00
O     0.72494592E-02    0.81752410E-01   -0.43887492E-01
H     0.85831992E+00   -0.56890479E+00    0.11298360E+00
H    -0.78646274E+00   -0.34068857E+00    0.23296648E+00
           3
Units: angs.;  Time step:          14  ;  Sim. Time [au]:         280.00
O     0.22878864E-02    0.11124086E+00    0.10594005E-01
H     0.73928506E+00   -0.42895041E+00   -0.11479970E+00
H    -0.78032278E+00   -0.40801097E+00   -0.71384299E-01
           3
Units: angs.;  Time step:          14  ;  Sim. Time [au]:         280.00
O     0.58208524E-02    0.84488523E-01    0.52856769E-02
H     0.77422406E+00   -0.33949675E+00   -0.64152200E-01
H    -0.78537830E+00   -0.38060350E+00   -0.20174534E+00
           3
Units: angs.;  Time step:          14  ;  Sim. Time [au]:         280.00
O     0.43700707E-01    0.92860697E-01   -0.13386312E-01
H     0.86798548E+00   -0.44722416E+00   -0.70714487E-01
H    -0.80538137E+00   -0.34282982E+00    0.80341281E-01
           3
Units: angs.;  Time step:          15  ;  Sim. Time [au]:         300.00
O     0.85947876E-02    0.84793625E-01   -0.45238226E-01
H     0.85307882E+00   -0.56613234E+00    0.89150425E-01
H    -0.79457005E+00   -0.31333646E+00    0.25773346E+00
           3
Units: angs.;  Time step:          15  ;  Sim. Time [au]:         300.00
O     0.44545937E-02    0.10794107E+00    0.16621803E-01
H     0.76845418E+00   -0.43867325E+00   -0.12837540E+00
H    -0.77681102E+00   -0.42357773E+00   -0.67873101E-01
           3
Units: angs.;  Time step:          15  ;  Sim. Time [au]:         300.00
O     0.48833454E-02    0.78230523E-01    0.10343187E-01
H     0.77303188E+00   -0.34448596E+00   -0.66131721E-01
H    -0.78074518E+00   -0.40822323E+00   -0.21045988E+00
           3
Units: angs.;  Time step:          15  ;  Sim. Time [au]:         300.00
O     0.52097294E-01    0.95184188E-01   -0.81805003E-02
H     0.87436790E+00   -0.46359194E+00   -0.70577689E-01
H    -0.79555625E+00   -0.32554829E+00    0.93965910E-01
           3
Units: angs.;  Time step:          16  ;  Sim. Time [au]:         320.00
O     0.88200093E-02    0.85421560E-01   -0.44016503E-01
H     0.85083989E+00   -0.55905593E+00    0.54802803E-01
H    -0.79002085E+00   -0.29871592E+00    0.28057746E+00
           3
Units: angs.;  Time step:          16  ;  Sim. Time [au]:         320.00
O     0.65281060E-02    0.10514414E+00    0.21564586E-01
H     0.78912598E+00   -0.44923061E+00   -0.13843308E+00
H    -0.76768019E+00   -0.44016516E+00   -0.50977701E-01
           3
Units: angs.;  Time step:          16  ;  Sim. Time [au]:         320.00
O     0.21984808E-02    0.73350439E-01    0.12959595E-01
H     0.77367093E+00   -0.36052705E+00   -0.62481349E-01
H    -0.78616896E+00   -0.40663381E+00   -0.20244169E+00
           3
Units: angs.;  Time step:          16  ;  Sim. Time [au]:         320.00
O     0.57797779E-01    0.95461377E-01   -0.47496527E-02
H     0.86554188E+00   -0.48844612E+00   -0.61499073E-01
H    -0.77425284E+00   -0.31691647E+00    0.97887225E-01
           3
Units: angs.;  Time step:          17  ;  Sim. Time [au]:         340.00
O     0.10045196E-01    0.84319076E-01   -0.44003597E-01
H     0.85641393E+00   -0.56696210E+00    0.12459131E-01
H    -0.77939908E+00   -0.30261351E+00    0.27054539E+00
           3
Units: angs.;  Time step:          17  ;  Sim. Time [au]:         340.00
O     0.49873310E-02    0.10180983E+00    0.26252561E-01
H     0.81925714E+00   -0.45980426E+00   -0.13696243E+00
H    -0.77100112E+00   -0.44905408E+00   -0.30523676E-01
           3
Units: angs.;  Time step:          17  ;  Sim. Time [au]:         340.00
O    -0.17478338E-02    0.70274498E-01    0.11665832E-01
H     0.78698583E+00   -0.37850093E+00   -0.58428474E-01
H    -0.81338970E+00   -0.40831309E+00   -0.19914622E+00
           3
Units: angs.;  Time step:          17  ;  Sim. Time [au]:         340.00
O     0.58570159E-01    0.99433222E-01   -0.61083084E-02
H     0.86165782E+00   -0.47771833E+00   -0.48877234E-01
H    -0.77532659E+00   -0.31425388E+00    0.10979089E+00
           3
Units: angs.;  Time step:          18  ;  Sim. Time [au]:         360.00
O     0.13316854E-01    0.81591333E-01   -0.40102152E-01
H     0.86718579E+00   -0.57857365E+00    0.96802712E-02
H    -0.76744162E+00   -0.31417460E+00    0.25023310E+00
           3
Units: angs.;  Time step:          18  ;  Sim. Time [au]:         360.00
O     0.59094533E-02    0.10170098E+00    0.32108889E-01
H     0.85782817E+00   -0.46528193E+00   -0.12961554E+00
H    -0.77992781E+00   -0.45017561E+00   -0.12760373E-01
           3
Units: angs.;  Time step:          18  ;  Sim. Time [au]:         360.00
O    -0.29632313E-03    0.67014146E-01    0.85188729E-02
H     0.80175357E+00   -0.40007416E+00   -0.66796657E-01
H    -0.81288395E+00   -0.41311739E+00   -0.20599656E+00
           3
Units: angs.;  Time step:          18  ;  Sim. Time [au]:         360.00
O     0.58219662E-01    0.10603818E+00   -0.98685291E-02
H     0.86909590E+00   -0.48514865E+00   -0.33340763E-01
H    -0.77081653E+00   -0.31132059E+00    0.97372561E-01
           3
Units: angs.;  Time step:          19  ;  Sim. Time [au]:         380.00
O     0.11011159E-01    0.79251264E-01   -0.41562980E-01
H     0.85300319E+00   -0.57814752E+00    0.26090185E-02
H    -0.76121522E+00   -0.32410518E+00    0.23937713E+00
           3
Units: angs.;  Time step:          19  ;  Sim. Time [au]:         380.00
O     0.53292204E-02    0.10331590E+00    0.36050191E-01
H     0.86549405E+00   -0.46907947E+00   -0.11368667E+00
H    -0.77811213E+00   -0.46836088E+00   -0.35543664E-02
           3
Units: angs.;  Time step:          19  ;  Sim. Time [au]:         380.00
O    -0.28287328E-02    0.64096641E-01    0.18830905E-02
H     0.80316994E+00   -0.42001004E+00   -0.81057394E-01
H    -0.82402280E+00   -0.40204216E+00   -0.21516546E+00
           3
Units: angs.;  Time step:          19  ;  Sim. Time [au]:         380.00
O     0.54521971E-01    0.11081421E+00   -0.13274300E-01
H     0.86935760E+00   -0.46451400E+00   -0.22704433E-01
H    -0.76315886E+00   -0.33264377E+00    0.97262614E-01
           3
Units: angs.;  Time step:          20  ;  Sim. Time [au]:         400.00
O     0.76641676E-02    0.78371733E-01   -0.42954375E-01
H     0.83661412E+00   -0.57533990E+00    0.80837191E-03
H    -0.77434336E+00   -0.32568079E+00    0.22877463E+00
           3
Units: angs.;  Time step:          20  ;  Sim. Time [au]:         400.00
O     0.91073890E-02    0.10702208E+00    0.34948494E-01
H     0.87835527E+00   -0.46586644E+00   -0.10729451E+00
H    -0.77110737E+00   -0.49061745E+00   -0.14486550E-01
           3
Units: angs.;  Time step:          20  ;  Sim. Time [au]:         400.00
O    -0.12320567E-02    0.59738191E-01   -0.55676332E-02
H     0.80157242E+00   -0.44476633E+00   -0.93398549E-01
H    -0.82453041E+00   -0.37982381E+00   -0.23358851E+00
           3
Units: angs.;  Time step:          20  ;  Sim. Time [au]:         400.00
O     0.52933641E-01    0.11593707E+00   -0.16949780E-01
H     0.87968820E+00   -0.43622414E+00   -0.19942927E-01
H    -0.77223758E+00   -0.34588932E+00    0.89017600E-01
