           3
Units: angs.;  Time step:           1  ;  Sim. Time [au]:          40.00
O     0.16014916E-03    0.11873960E+00   -0.56945613E-03
H     0.75096494E+00   -0.47810181E+00    0.11551059E-02
H    -0.75327100E+00   -0.47740909E+00    0.76534516E-02
           3
Units: angs.;  Time step:           1  ;  Sim. Time [au]:          40.00
O     0.27503901E-02    0.12071651E+00   -0.20145645E-03
H     0.75254944E+00   -0.48841383E+00   -0.16254925E-01
H    -0.79565987E+00   -0.49843959E+00    0.19238322E-01
           3
Units: angs.;  Time step:           2  ;  Sim. Time [au]:          80.00
O    -0.41034427E-04    0.11864697E+00   -0.29029271E-02
H     0.75087292E+00   -0.47984511E+00    0.59818735E-02
H    -0.74983677E+00   -0.47388134E+00    0.32978387E-01
           3
Units: angs.;  Time step:           2  ;  Sim. Time [au]:          80.00
O     0.47025083E-02    0.12254746E+00   -0.21837429E-02
H     0.75414174E+00   -0.50091285E+00   -0.27708716E-01
H    -0.82636112E+00   -0.51443618E+00    0.55371666E-01
