           3
Time step:                   1 Sim. Time [au]          40.00
O     0.26327387E-03    0.11915278E+00   -0.39279693E-03
H     0.74657447E+00   -0.48172586E+00    0.79513729E-03
H    -0.75075126E+00   -0.48056864E+00    0.54390450E-02
           3
Time step:                   1 Sim. Time [au]          40.00
O     0.28535148E-02    0.12112969E+00   -0.24797254E-04
H     0.74815896E+00   -0.49203788E+00   -0.16614893E-01
H    -0.79314012E+00   -0.50159914E+00    0.17023916E-01
           3
Time step:                   2 Sim. Time [au]          80.00
O     0.49722955E-04    0.11965143E+00   -0.78425668E-03
H     0.73845518E+00   -0.48903780E+00    0.15897021E-02
H    -0.73923617E+00   -0.48116016E+00    0.10855619E-01
           3
Time step:                   2 Sim. Time [au]          80.00
O     0.47932657E-02    0.12355192E+00   -0.65072448E-04
H     0.74172400E+00   -0.51010553E+00   -0.32100887E-01
H    -0.81576052E+00   -0.52171499E+00    0.33248898E-01
