           3
 Time step:           1
O   0.2632738733E-03  0.1189930236E+00 -0.3927969350E-03
H   0.7454723204E+00 -0.4804585336E+00  0.7951372942E-03
H  -0.7496485942E+00 -0.4793011610E+00  0.5439044962E-02
           3
 Time step:           1
O   0.2853514839E-02  0.1209267122E+00 -0.2479725417E-04
H   0.7467866751E+00 -0.4904277460E+00 -0.1661489319E-01
H  -0.7917732967E+00 -0.4999902377E+00  0.1702391555E-01
