           3
 Time step:           1
O   0.2632738733E-03  0.1191527804E+00 -0.3927969350E-03
H   0.7465744684E+00 -0.4817258583E+00  0.7951372942E-03
H  -0.7507512572E+00 -0.4805686404E+00  0.5439044962E-02
           3
 Time step:           1
O   0.2853514839E-02  0.1211296875E+00 -0.2479725417E-04
H   0.7481589633E+00 -0.4920378775E+00 -0.1661489319E-01
H  -0.7931401236E+00 -0.5015991399E+00  0.1702391555E-01
           3
 Time step:           2
O   0.4972295527E-04  0.1196514333E+00 -0.7842566774E-03
H   0.7384551820E+00 -0.4890377962E+00  0.1589702149E-02
H  -0.7392361687E+00 -0.4811601596E+00  0.1085561903E-01
           3
 Time step:           2
O   0.4793265662E-02  0.1235519248E+00 -0.6507244816E-04
H   0.7417240021E+00 -0.5101055335E+00 -0.3210088748E-01
H  -0.8157605195E+00 -0.5217149945E+00  0.3324889805E-01
