           3
Time step:                   1 Sim. Time [au]          20.00
O    -0.34814789E-02    0.11687537E+00   -0.16488013E-02
H     0.79907715E+00   -0.45192909E+00   -0.75476904E-02
H    -0.74660745E+00   -0.48301560E+00   -0.18038517E-02
           3
Time step:                   1 Sim. Time [au]          20.00
O    -0.17761823E-02    0.11924964E+00    0.11512047E-03
H     0.73249343E+00   -0.47159862E+00    0.27634718E-01
H    -0.74687325E+00   -0.47010445E+00   -0.11634748E-01
           3
Time step:                   1 Sim. Time [au]          20.00
O    -0.31411645E-02    0.12507489E+00    0.34604841E-02
H     0.79549117E+00   -0.48484676E+00   -0.20906980E-01
H    -0.75936785E+00   -0.45852380E+00    0.11557703E-01
           3
Time step:                   1 Sim. Time [au]          20.00
O     0.93567745E-03    0.11139306E+00    0.16526120E-02
H     0.79213527E+00   -0.47319759E+00    0.25640864E-02
H    -0.77288893E+00   -0.46420032E+00   -0.10535096E-02
           3
Time step:                   2 Sim. Time [au]          40.00
O    -0.44454161E-02    0.11970410E+00   -0.10068622E-01
H     0.78939141E+00   -0.46241218E+00   -0.25104954E-01
H    -0.78391907E+00   -0.48752930E+00   -0.22073695E-01
           3
Time step:                   2 Sim. Time [au]          40.00
O     0.36785920E-02    0.11191459E+00    0.56060719E-03
H     0.70342537E+00   -0.47259990E+00    0.20391039E-01
H    -0.74021965E+00   -0.49489096E+00   -0.19471355E-02
           3
Time step:                   2 Sim. Time [au]          40.00
O    -0.27400147E-02    0.11723199E+00   -0.20911592E-02
H     0.81663617E+00   -0.47676673E+00   -0.32341912E-02
H    -0.79109731E+00   -0.45424547E+00    0.23832879E-01
           3
Time step:                   2 Sim. Time [au]          40.00
O    -0.41309123E-02    0.10757463E+00   -0.29896900E-02
H     0.79633856E+00   -0.48744957E+00    0.51753484E-01
H    -0.79258419E+00   -0.45342791E+00    0.31504294E-02
           3
Time step:                   3 Sim. Time [au]          60.00
O     0.33678749E-02    0.12086471E+00   -0.13797992E-01
H     0.78265725E+00   -0.45985745E+00   -0.40298248E-01
H    -0.78043992E+00   -0.44880728E+00   -0.36749168E-01
           3
Time step:                   3 Sim. Time [au]          60.00
O    -0.35954280E-02    0.11167578E+00    0.43109376E-02
H     0.72025038E+00   -0.49636519E+00    0.73197016E-02
H    -0.74687622E+00   -0.50005234E+00    0.83658346E-02
           3
Time step:                   3 Sim. Time [au]          60.00
O     0.53315289E-02    0.10604337E+00   -0.64110817E-02
H     0.81837761E+00   -0.46929975E+00    0.20422756E-01
H    -0.81766441E+00   -0.43476960E+00    0.56750241E-01
           3
Time step:                   3 Sim. Time [au]          60.00
O    -0.14932820E-01    0.10767085E+00    0.25554389E-02
H     0.79173405E+00   -0.47689828E+00    0.64731313E-01
H    -0.75706181E+00   -0.43366275E+00   -0.49137425E-02
           3
Time step:                   4 Sim. Time [au]          80.00
O     0.85145950E-02    0.11833910E+00   -0.18860442E-01
H     0.81429679E+00   -0.45367794E+00   -0.34122053E-01
H    -0.74208339E+00   -0.43488735E+00   -0.65838566E-01
           3
Time step:                   4 Sim. Time [au]          80.00
O    -0.63973399E-02    0.10844789E+00    0.10609692E-01
H     0.73700597E+00   -0.45905342E+00    0.41819122E-01
H    -0.73538827E+00   -0.52340141E+00   -0.22977344E-01
           3
Time step:                   4 Sim. Time [au]          80.00
O     0.78774642E-02    0.10008470E+00   -0.80872453E-02
H     0.82131294E+00   -0.43707230E+00    0.40760801E-01
H    -0.81773062E+00   -0.43635849E+00    0.80030800E-01
           3
Time step:                   4 Sim. Time [au]          80.00
O    -0.98329983E-02    0.10217108E+00    0.34001336E-02
H     0.78453876E+00   -0.46040136E+00    0.73824052E-01
H    -0.75559936E+00   -0.42214951E+00   -0.32288583E-03
           3
Time step:                   5 Sim. Time [au]         100.00
O     0.90254322E-02    0.10552957E+00   -0.24354169E-01
H     0.81577130E+00   -0.50579730E+00   -0.48598815E-01
H    -0.74647367E+00   -0.42314895E+00   -0.35434846E-01
           3
Time step:                   5 Sim. Time [au]         100.00
O    -0.74718516E-02    0.10302022E+00    0.23605855E-01
H     0.72940897E+00   -0.44134635E+00    0.46809455E-01
H    -0.72129417E+00   -0.49745246E+00   -0.65545478E-02
           3
Time step:                   5 Sim. Time [au]         100.00
O     0.16071869E-01    0.99521190E-01   -0.16652696E-01
H     0.82937711E+00   -0.40656935E+00    0.33598693E-01
H    -0.82534166E+00   -0.42222884E+00    0.67416109E-01
           3
Time step:                   5 Sim. Time [au]         100.00
O    -0.93142179E-02    0.10210322E+00   -0.14442242E-02
H     0.77349131E+00   -0.43177623E+00    0.59963685E-01
H    -0.74201336E+00   -0.44879578E+00    0.18429766E-01
           3
Time step:                   6 Sim. Time [au]         120.00
O     0.92239239E-02    0.90384063E-01   -0.22000365E-01
H     0.79161441E+00   -0.49104628E+00   -0.39343602E-01
H    -0.77038142E+00   -0.42946114E+00   -0.49727717E-01
           3
Time step:                   6 Sim. Time [au]         120.00
O    -0.65330659E-02    0.10195030E+00    0.27296594E-01
H     0.75114522E+00   -0.44036721E+00    0.50281002E-01
H    -0.75616264E+00   -0.49383072E+00    0.20095104E-01
           3
Time step:                   6 Sim. Time [au]         120.00
O     0.12009043E-01    0.96051940E-01   -0.11659931E-01
H     0.83885844E+00   -0.39441883E+00    0.81952473E-02
H    -0.82621867E+00   -0.43354480E+00    0.54741873E-01
           3
Time step:                   6 Sim. Time [au]         120.00
O    -0.13602853E-01    0.10085709E+00   -0.64201607E-02
H     0.79007328E+00   -0.43147383E+00    0.67675851E-01
H    -0.74771850E+00   -0.48072066E+00    0.40982568E-01
           3
Time step:                   7 Sim. Time [au]         140.00
O     0.34222649E-02    0.89028963E-01   -0.21977599E-01
H     0.77059008E+00   -0.48132504E+00   -0.38960102E-01
H    -0.76145191E+00   -0.43925814E+00   -0.54971539E-01
           3
Time step:                   7 Sim. Time [au]         140.00
O    -0.10943434E-01    0.10366309E+00    0.34121770E-01
H     0.74637071E+00   -0.38953335E+00    0.64327999E-01
H    -0.76153185E+00   -0.54389242E+00    0.45101072E-01
           3
Time step:                   7 Sim. Time [au]         140.00
O     0.58819144E-02    0.10277538E+00   -0.14363988E-01
H     0.82414697E+00   -0.41160630E+00   -0.15096442E-01
H    -0.76563187E+00   -0.44800669E+00    0.68124902E-01
           3
Time step:                   7 Sim. Time [au]         140.00
O    -0.17646416E-01    0.96638169E-01   -0.40094849E-02
H     0.77349203E+00   -0.43132083E+00    0.75019603E-01
H    -0.74317119E+00   -0.49958359E+00    0.16554657E-01
           3
Time step:                   8 Sim. Time [au]         160.00
O     0.12954318E-01    0.81500909E-01   -0.20633192E-01
H     0.77393984E+00   -0.46311672E+00   -0.30153370E-01
H    -0.76065902E+00   -0.44089884E+00   -0.25627835E-01
           3
Time step:                   8 Sim. Time [au]         160.00
O    -0.12491220E-01    0.10606231E+00    0.27029867E-01
H     0.73546023E+00   -0.38255365E+00    0.90179594E-01
H    -0.68190260E+00   -0.50693070E+00    0.72375619E-01
           3
Time step:                   8 Sim. Time [au]         160.00
O     0.47576486E-02    0.10718438E+00   -0.11737611E-01
H     0.82429756E+00   -0.39968054E+00   -0.30896540E-01
H    -0.73440915E+00   -0.44936660E+00    0.87276863E-01
           3
Time step:                   8 Sim. Time [au]         160.00
O    -0.77846764E-02    0.91597111E-01   -0.16567832E-01
H     0.76574285E+00   -0.46623553E+00    0.69823976E-01
H    -0.72869110E+00   -0.54934142E+00    0.42294982E-01
           3
Time step:                   9 Sim. Time [au]         180.00
O     0.15697028E-01    0.71970038E-01   -0.22355000E-01
H     0.73450928E+00   -0.45714058E+00   -0.36081184E-01
H    -0.75512170E+00   -0.47729325E+00   -0.68439410E-02
           3
Time step:                   9 Sim. Time [au]         180.00
O    -0.16604117E-02    0.10922100E+00    0.22477039E-01
H     0.76990218E+00   -0.35295620E+00    0.90193394E-01
H    -0.66006159E+00   -0.47797019E+00    0.11331535E+00
           3
Time step:                   9 Sim. Time [au]         180.00
O     0.25895209E-02    0.10331125E+00   -0.14232449E-01
H     0.81667514E+00   -0.41052213E+00   -0.21025431E-01
H    -0.76420305E+00   -0.42145314E+00    0.91476007E-01
           3
Time step:                   9 Sim. Time [au]         180.00
O     0.26529930E-02    0.75266548E-01   -0.22414659E-01
H     0.74989339E+00   -0.49432942E+00    0.97183489E-01
H    -0.74664747E+00   -0.52050926E+00    0.45747056E-01
           3
Time step:                  10 Sim. Time [au]         200.00
O     0.22043897E-01    0.72525556E-01   -0.24404357E-01
H     0.74193345E+00   -0.44528462E+00   -0.53959088E-01
H    -0.75994664E+00   -0.46398489E+00   -0.74038233E-02
           3
Time step:                  10 Sim. Time [au]         200.00
O     0.29461054E-04    0.11601486E+00    0.22957639E-01
H     0.76918721E+00   -0.34632161E+00    0.85187602E-01
H    -0.65139007E+00   -0.45891439E+00    0.15528848E+00
           3
Time step:                  10 Sim. Time [au]         200.00
O     0.36575618E-02    0.92968671E-01   -0.10553905E-01
H     0.78148416E+00   -0.37116774E+00    0.28771556E-01
H    -0.75276379E+00   -0.40739066E+00    0.91602626E-01
           3
Time step:                  10 Sim. Time [au]         200.00
O     0.13334043E-01    0.72676766E-01   -0.21301456E-01
H     0.71606725E+00   -0.48489369E+00    0.98882228E-01
H    -0.73472758E+00   -0.49288304E+00    0.11146736E+00
           3
Time step:                  11 Sim. Time [au]         220.00
O     0.28604052E-01    0.70946679E-01   -0.28006547E-01
H     0.75653676E+00   -0.43634443E+00   -0.28234576E-01
H    -0.74684041E+00   -0.46589248E+00    0.12422491E-01
           3
Time step:                  11 Sim. Time [au]         220.00
O     0.14423748E-02    0.11485219E+00    0.34454929E-01
H     0.79523250E+00   -0.33956069E+00    0.76555833E-01
H    -0.65247128E+00   -0.43659059E+00    0.19177318E+00
           3
Time step:                  11 Sim. Time [au]         220.00
O     0.74889679E-02    0.92377542E-01   -0.10225669E-01
H     0.77938207E+00   -0.36356907E+00    0.42366545E-01
H    -0.69540862E+00   -0.42168114E+00    0.30159960E-01
           3
Time step:                  11 Sim. Time [au]         220.00
O     0.21681176E-01    0.71118664E-01   -0.20886519E-01
H     0.72711467E+00   -0.49773921E+00    0.11664342E+00
H    -0.77195807E+00   -0.46219837E+00    0.12899975E+00
           3
Time step:                  12 Sim. Time [au]         240.00
O     0.31512591E-01    0.67345319E-01   -0.23996920E-01
H     0.77841862E+00   -0.40298989E+00   -0.13831534E-01
H    -0.72981398E+00   -0.45535888E+00    0.95194162E-02
           3
Time step:                  12 Sim. Time [au]         240.00
O     0.48226748E-02    0.11561151E+00    0.30992321E-01
H     0.83397261E+00   -0.35382173E+00    0.25624712E-01
H    -0.64413695E+00   -0.43003597E+00    0.23087478E+00
           3
Time step:                  12 Sim. Time [au]         240.00
O     0.69230224E-02    0.93169970E-01   -0.15399532E-01
H     0.74684292E+00   -0.33605154E+00    0.10529945E+00
H    -0.71636329E+00   -0.45735899E+00    0.54164767E-01
           3
Time step:                  12 Sim. Time [au]         240.00
O     0.31558991E-01    0.66320403E-01   -0.23355606E-01
H     0.69903466E+00   -0.48818773E+00    0.10008158E+00
H    -0.81805092E+00   -0.44275675E+00    0.11730630E+00
           3
Time step:                  13 Sim. Time [au]         260.00
O     0.28667360E-01    0.64998260E-01   -0.23675701E-01
H     0.79008838E+00   -0.40856961E+00    0.18081537E-01
H    -0.71230374E+00   -0.45756139E+00    0.28562056E-01
           3
Time step:                  13 Sim. Time [au]         260.00
O     0.86534819E-02    0.12321789E+00    0.18678716E-01
H     0.84188637E+00   -0.37223935E+00    0.15831929E-01
H    -0.63228985E+00   -0.42394983E+00    0.25605344E+00
           3
Time step:                  13 Sim. Time [au]         260.00
O     0.75193550E-02    0.92158441E-01   -0.14638153E-01
H     0.74506068E+00   -0.31543722E+00    0.12919744E+00
H    -0.74640412E+00   -0.46161956E+00    0.53624209E-01
           3
Time step:                  13 Sim. Time [au]         260.00
O     0.31202162E-01    0.60397223E-01   -0.23845673E-01
H     0.70402785E+00   -0.48141344E+00    0.10553786E+00
H    -0.79814979E+00   -0.42969448E+00    0.90108416E-01
           3
Time step:                  14 Sim. Time [au]         280.00
O     0.27800727E-01    0.61739592E-01   -0.29102964E-01
H     0.78649456E+00   -0.47093233E+00    0.48404102E-01
H    -0.70859398E+00   -0.46916609E+00    0.22477508E-01
           3
Time step:                  14 Sim. Time [au]         280.00
O     0.15817128E-01    0.11428681E+00    0.11412243E-01
H     0.88306867E+00   -0.36443617E+00    0.24458880E-01
H    -0.61738069E+00   -0.40875475E+00    0.22621817E+00
           3
Time step:                  14 Sim. Time [au]         280.00
O     0.59845744E-02    0.93483345E-01   -0.22089184E-01
H     0.71293609E+00   -0.30783623E+00    0.17383114E+00
H    -0.78328369E+00   -0.46332338E+00    0.42892553E-01
           3
Time step:                  14 Sim. Time [au]         280.00
O     0.25846480E-01    0.60321801E-01   -0.18023401E-01
H     0.67352350E+00   -0.44262291E+00    0.13501483E+00
H    -0.76156237E+00   -0.42169162E+00    0.41509693E-01
           3
Time step:                  15 Sim. Time [au]         300.00
O     0.28284557E-01    0.54014926E-01   -0.27859788E-01
H     0.80732652E+00   -0.49036747E+00    0.65186662E-01
H    -0.71328052E+00   -0.45504390E+00   -0.18186144E-02
           3
Time step:                  15 Sim. Time [au]         300.00
O     0.19037478E-01    0.11787553E+00    0.84484370E-02
H     0.87742173E+00   -0.33026207E+00    0.27810199E-01
H    -0.63612370E+00   -0.40021404E+00    0.22417704E+00
           3
Time step:                  15 Sim. Time [au]         300.00
O     0.11078288E-01    0.94633804E-01   -0.25329304E-01
H     0.71525378E+00   -0.30946099E+00    0.21642995E+00
H    -0.81279994E+00   -0.55416121E+00    0.30437851E-01
           3
Time step:                  15 Sim. Time [au]         300.00
O     0.27425940E-01    0.49941524E-01   -0.19104264E-01
H     0.63592629E+00   -0.43654432E+00    0.13217136E+00
H    -0.76724780E+00   -0.41121263E+00    0.14823036E-01
           3
Time step:                  16 Sim. Time [au]         320.00
O     0.26549607E-01    0.50428995E-01   -0.27202507E-01
H     0.84004619E+00   -0.50578573E+00    0.74203315E-01
H    -0.74464828E+00   -0.48369562E+00    0.99783262E-02
           3
Time step:                  16 Sim. Time [au]         320.00
O     0.27030702E-01    0.12091549E+00    0.49014035E-02
H     0.90278628E+00   -0.30498656E+00   -0.15065057E-01
H    -0.68254758E+00   -0.44635142E+00    0.24372237E+00
           3
Time step:                  16 Sim. Time [au]         320.00
O     0.96308303E-02    0.10341035E+00   -0.27586367E-01
H     0.74642030E+00   -0.32217192E+00    0.22683129E+00
H    -0.82096801E+00   -0.56481989E+00   -0.69599415E-03
           3
Time step:                  16 Sim. Time [au]         320.00
O     0.22262582E-01    0.50734615E-01   -0.20279412E-01
H     0.65623852E+00   -0.43877722E+00    0.13973494E+00
H    -0.78445630E+00   -0.39055264E+00    0.16284284E-01
           3
Time step:                  17 Sim. Time [au]         340.00
O     0.24521581E-01    0.44545598E-01   -0.29803876E-01
H     0.85014601E+00   -0.50237317E+00    0.11893715E+00
H    -0.73400829E+00   -0.49690733E+00    0.17024369E-01
           3
Time step:                  17 Sim. Time [au]         340.00
O     0.35175922E-01    0.11685959E+00    0.10961350E-02
H     0.93065610E+00   -0.29349052E+00   -0.43851654E-02
H    -0.74093101E+00   -0.46390751E+00    0.25759139E+00
           3
Time step:                  17 Sim. Time [au]         340.00
O    -0.14882050E-02    0.10776888E+00   -0.32004765E-01
H     0.75638454E+00   -0.33946777E+00    0.25122622E+00
H    -0.82559942E+00   -0.55693993E+00    0.14312333E-01
           3
Time step:                  17 Sim. Time [au]         340.00
O     0.16880151E-01    0.59565316E-01   -0.15007845E-01
H     0.68042167E+00   -0.48011913E+00    0.16708426E+00
H    -0.79642843E+00   -0.36883407E+00    0.19027552E-01
           3
Time step:                  18 Sim. Time [au]         360.00
O     0.24066275E-01    0.45741650E-01   -0.27047260E-01
H     0.81418110E+00   -0.49949949E+00    0.12318995E+00
H    -0.72501790E+00   -0.49465365E+00   -0.13627145E-01
           3
Time step:                  18 Sim. Time [au]         360.00
O     0.33208368E-01    0.11463445E+00    0.24286561E-02
H     0.93507283E+00   -0.26882693E+00   -0.10391417E-01
H    -0.78441036E+00   -0.47160495E+00    0.27270286E+00
           3
Time step:                  18 Sim. Time [au]         360.00
O    -0.45297204E-02    0.10937455E+00   -0.34308566E-01
H     0.78997199E+00   -0.37630474E+00    0.27531209E+00
H    -0.77872436E+00   -0.58374107E+00    0.29388533E-01
           3
Time step:                  18 Sim. Time [au]         360.00
O     0.18079169E-01    0.60216206E-01   -0.11106596E-01
H     0.71706940E+00   -0.49772201E+00    0.15288618E+00
H    -0.79593580E+00   -0.31892975E+00    0.14294480E-01
           3
Time step:                  19 Sim. Time [au]         380.00
O     0.30186783E-01    0.44456267E-01   -0.23858567E-01
H     0.81733521E+00   -0.54525934E+00    0.12351536E+00
H    -0.74065354E+00   -0.45839629E+00   -0.96803992E-03
           3
Time step:                  19 Sim. Time [au]         380.00
O     0.37790048E-01    0.11788495E+00    0.94963438E-03
H     0.94460718E+00   -0.24198494E+00   -0.16175874E-01
H    -0.82871130E+00   -0.46237169E+00    0.24783152E+00
           3
Time step:                  19 Sim. Time [au]         380.00
O     0.17211782E-02    0.11136609E+00   -0.41482551E-01
H     0.80003702E+00   -0.38935153E+00    0.27433695E+00
H    -0.69684110E+00   -0.57482056E+00    0.30686263E-01
           3
Time step:                  19 Sim. Time [au]         380.00
O     0.18133406E-01    0.62160898E-01   -0.18516468E-01
H     0.76968639E+00   -0.56243100E+00    0.16277077E+00
H    -0.81220571E+00   -0.32583627E+00    0.81614255E-02
           3
Time step:                  20 Sim. Time [au]         400.00
O     0.30047309E-01    0.33320485E-01   -0.27171178E-01
H     0.83635540E+00   -0.58321635E+00    0.13183039E+00
H    -0.77471555E+00   -0.42632067E+00    0.37312009E-01
           3
Time step:                  20 Sim. Time [au]         400.00
O     0.33569881E-01    0.11207244E+00    0.16204308E-02
H     0.89976988E+00   -0.27990967E+00    0.20409654E-01
H    -0.86234362E+00   -0.45626652E+00    0.28219977E+00
           3
Time step:                  20 Sim. Time [au]         400.00
O    -0.74859697E-02    0.11235956E+00   -0.35594786E-01
H     0.83398782E+00   -0.41272467E+00    0.30824127E+00
H    -0.65631862E+00   -0.55385436E+00    0.86517567E-01
           3
Time step:                  20 Sim. Time [au]         400.00
O     0.14417029E-01    0.60238374E-01   -0.18655054E-01
H     0.83754713E+00   -0.62035161E+00    0.17101683E+00
H    -0.81964363E+00   -0.32282004E+00    0.47998649E-01
