           3
 Time step:           1
O  -0.3481478949E-02  0.1168753660E+00 -0.1648801253E-02
H   0.7990771488E+00 -0.4519290850E+00 -0.7547690381E-02
H  -0.7466074538E+00 -0.4830155992E+00 -0.1803851670E-02
           3
 Time step:           1
O  -0.1776182333E-02  0.1192496398E+00  0.1151204653E-03
H   0.7324934311E+00 -0.4715986232E+00  0.2763471811E-01
H  -0.7468732450E+00 -0.4701044490E+00 -0.1163474819E-01
           3
 Time step:           1
O  -0.3141164498E-02  0.1250748926E+00  0.3460484064E-02
H   0.7954911674E+00 -0.4848467562E+00 -0.2090698013E-01
H  -0.7593678542E+00 -0.4585237976E+00  0.1155770349E-01
           3
 Time step:           1
O   0.9356774486E-03  0.1113930649E+00  0.1652611971E-02
H   0.7921352720E+00 -0.4731975881E+00  0.2564086402E-02
H  -0.7728889277E+00 -0.4642003187E+00 -0.1053509640E-02
           3
 Time step:           2
O  -0.4445416090E-02  0.1197040990E+00 -0.1006862242E-01
H   0.7893914129E+00 -0.4624121834E+00 -0.2510495362E-01
H  -0.7839190717E+00 -0.4875292971E+00 -0.2207369542E-01
           3
 Time step:           2
O   0.3678592024E-02  0.1119145893E+00  0.5606071871E-03
H   0.7034253749E+00 -0.4725999032E+00  0.2039103879E-01
H  -0.7402196524E+00 -0.4948909553E+00 -0.1947135478E-02
           3
 Time step:           2
O  -0.2740014710E-02  0.1172319866E+00 -0.2091159243E-02
H   0.8166361671E+00 -0.4767667283E+00 -0.3234191238E-02
H  -0.7910973131E+00 -0.4542454700E+00  0.2383287923E-01
           3
 Time step:           2
O  -0.4130912291E-02  0.1075746251E+00 -0.2989690049E-02
H   0.7963385558E+00 -0.4874495706E+00  0.5175348371E-01
H  -0.7925841884E+00 -0.4534279056E+00  0.3150429388E-02
           3
 Time step:           3
O   0.3367874946E-02  0.1208647087E+00 -0.1379799164E-01
H   0.7826572469E+00 -0.4598574545E+00 -0.4029824846E-01
H  -0.7804399203E+00 -0.4488072768E+00 -0.3674916809E-01
           3
 Time step:           3
O  -0.3595428032E-02  0.1116757833E+00  0.4310937570E-02
H   0.7202503806E+00 -0.4963651867E+00  0.7319701650E-02
H  -0.7468762194E+00 -0.5000523363E+00  0.8365834629E-02
           3
 Time step:           3
O   0.5331528891E-02  0.1060433670E+00 -0.6411081651E-02
H   0.8183776070E+00 -0.4692997525E+00  0.2042275627E-01
H  -0.8176644138E+00 -0.4347695967E+00  0.5675024064E-01
           3
 Time step:           3
O  -0.1493282022E-01  0.1076708535E+00  0.2555438899E-02
H   0.7917340467E+00 -0.4768982753E+00  0.6473131277E-01
H  -0.7570618110E+00 -0.4336627490E+00 -0.4913742499E-02
           3
 Time step:           4
O   0.8514594964E-02  0.1183391011E+00 -0.1886044150E-01
H   0.8142967893E+00 -0.4536779379E+00 -0.3412205264E-01
H  -0.7420833909E+00 -0.4348873491E+00 -0.6583856650E-01
           3
 Time step:           4
O  -0.6397339890E-02  0.1084478868E+00  0.1060969219E-01
H   0.7370059687E+00 -0.4590534183E+00  0.4181912231E-01
H  -0.7353882657E+00 -0.5234014138E+00 -0.2297734405E-01
           3
 Time step:           4
O   0.7877464206E-02  0.1000846965E+00 -0.8087245296E-02
H   0.8213129426E+00 -0.4370722982E+00  0.4076080147E-01
H  -0.8177306186E+00 -0.4363584921E+00  0.8003080002E-01
           3
 Time step:           4
O  -0.9832998270E-02  0.1021710755E+00  0.3400133593E-02
H   0.7845387620E+00 -0.4604013604E+00  0.7382405218E-01
H  -0.7555993645E+00 -0.4221495129E+00 -0.3228858350E-03
           3
 Time step:           5
O   0.9025432166E-02  0.1055295692E+00 -0.2435416880E-01
H   0.8157713038E+00 -0.5057973028E+00 -0.4859881464E-01
H  -0.7464736729E+00 -0.4231489528E+00 -0.3543484618E-01
           3
 Time step:           5
O  -0.7471851555E-02  0.1030202182E+00  0.2360585524E-01
H   0.7294089684E+00 -0.4413463489E+00  0.4680945450E-01
H  -0.7212941727E+00 -0.4974524552E+00 -0.6554547780E-02
           3
 Time step:           5
O   0.1607186937E-01  0.9952118983E-01 -0.1665269642E-01
H   0.8293771074E+00 -0.4065693473E+00  0.3359869341E-01
H  -0.8253416572E+00 -0.4222288392E+00  0.6741610911E-01
           3
 Time step:           5
O  -0.9314217946E-02  0.1021032207E+00 -0.1444224228E-02
H   0.7734913145E+00 -0.4317762266E+00  0.5996368481E-01
H  -0.7420133602E+00 -0.4487957784E+00  0.1842976602E-01
           3
 Time step:           6
O   0.9223923943E-02  0.9038406337E-01 -0.2200036549E-01
H   0.7916144127E+00 -0.4910462774E+00 -0.3934360209E-01
H  -0.7703814152E+00 -0.4294611359E+00 -0.4972771749E-01
           3
 Time step:           6
O  -0.6533065864E-02  0.1019502976E+00  0.2729659383E-01
H   0.7511452197E+00 -0.4403672073E+00  0.5028100168E-01
H  -0.7561626385E+00 -0.4938307211E+00  0.2009510384E-01
           3
 Time step:           6
O   0.1200904310E-01  0.9605193972E-01 -0.1165993063E-01
H   0.8388584378E+00 -0.3944188255E+00  0.8195247273E-02
H  -0.8262186673E+00 -0.4335448009E+00  0.5474187287E-01
           3
 Time step:           6
O  -0.1360285257E-01  0.1008570936E+00 -0.6420160705E-02
H   0.7900732799E+00 -0.4314738327E+00  0.6767585059E-01
H  -0.7477184951E+00 -0.4807206582E+00  0.4098256756E-01
           3
 Time step:           7
O   0.3422264930E-02  0.8902896250E-01 -0.2197759948E-01
H   0.7705900820E+00 -0.4813250395E+00 -0.3896010157E-01
H  -0.7614519107E+00 -0.4392581380E+00 -0.5497153941E-01
           3
 Time step:           7
O  -0.1094343356E-01  0.1036630872E+00  0.3412177033E-01
H   0.7463707150E+00 -0.3895333539E+00  0.6432799928E-01
H  -0.7615318466E+00 -0.5438924225E+00  0.4510107157E-01
           3
 Time step:           7
O   0.5881914390E-02  0.1027753786E+00 -0.1436398832E-01
H   0.8241469741E+00 -0.4116063046E+00 -0.1509644200E-01
H  -0.7656318674E+00 -0.4480066924E+00  0.6812490179E-01
           3
 Time step:           7
O  -0.1764641642E-01  0.9663816873E-01 -0.4009484887E-02
H   0.7734920316E+00 -0.4313208291E+00  0.7501960320E-01
H  -0.7431711917E+00 -0.4995835863E+00  0.1655465718E-01
           3
 Time step:           8
O   0.1295431766E-01  0.8150090906E-01 -0.2063319160E-01
H   0.7739398391E+00 -0.4631167184E+00 -0.3015336990E-01
H  -0.7606590187E+00 -0.4408988425E+00 -0.2562783452E-01
           3
 Time step:           8
O  -0.1249122008E-01  0.1060623137E+00  0.2702986724E-01
H   0.7354602294E+00 -0.3825536501E+00  0.9017959397E-01
H  -0.6819025990E+00 -0.5069306998E+00  0.7237561851E-01
           3
 Time step:           8
O   0.4757648558E-02  0.1071843752E+00 -0.1173761082E-01
H   0.8242975595E+00 -0.3996805446E+00 -0.3089654004E-01
H  -0.7344091535E+00 -0.4493665972E+00  0.8727686309E-01
           3
 Time step:           8
O  -0.7784676438E-02  0.9159711103E-01 -0.1656783211E-01
H   0.7657428536E+00 -0.4662355251E+00  0.6982397629E-01
H  -0.7286911034E+00 -0.5493414180E+00  0.4229498217E-01
           3
 Time step:           9
O   0.1569702769E-01  0.7197003815E-01 -0.2235499979E-01
H   0.7345092822E+00 -0.4571405782E+00 -0.3608118417E-01
H  -0.7551217032E+00 -0.4772932497E+00 -0.6843941025E-02
           3
 Time step:           9
O  -0.1660411694E-02  0.1092210029E+00  0.2247703947E-01
H   0.7699021818E+00 -0.3529561959E+00  0.9019339434E-01
H  -0.6600615908E+00 -0.4779701871E+00  0.1133153461E+00
           3
 Time step:           9
O   0.2589520886E-02  0.1033112467E+00 -0.1423244893E-01
H   0.8166751389E+00 -0.4105221279E+00 -0.2102543108E-01
H  -0.7642030483E+00 -0.4214531434E+00  0.9147600739E-01
           3
 Time step:           9
O   0.2652992962E-02  0.7526654778E-01 -0.2241465950E-01
H   0.7498933928E+00 -0.4943294176E+00  0.9718348933E-01
H  -0.7466474682E+00 -0.5205092593E+00  0.4574705623E-01
           3
 Time step:          10
O   0.2204389656E-01  0.7252555610E-01 -0.2440435690E-01
H   0.7419334481E+00 -0.4452846244E+00 -0.5395908813E-01
H  -0.7599466437E+00 -0.4639848883E+00 -0.7403823319E-02
           3
 Time step:          10
O   0.2946105434E-04  0.1160148598E+00  0.2295763915E-01
H   0.7691872115E+00 -0.3463216056E+00  0.8518760227E-01
H  -0.6513900738E+00 -0.4589143880E+00  0.1552884780E+00
           3
 Time step:          10
O   0.3657561804E-02  0.9296867068E-01 -0.1055390514E-01
H   0.7814841634E+00 -0.3711677439E+00  0.2877155608E-01
H  -0.7527637924E+00 -0.4073906586E+00  0.9160262566E-01
           3
 Time step:          10
O   0.1333404271E-01  0.7267676615E-01 -0.2130145617E-01
H   0.7160672479E+00 -0.4848936883E+00  0.9888222754E-01
H  -0.7347275834E+00 -0.4928830439E+00  0.1114673593E+00
           3
 Time step:          11
O   0.2860405200E-01  0.7094667855E-01 -0.2800654691E-01
H   0.7565367551E+00 -0.4363444340E+00 -0.2823457589E-01
H  -0.7468404061E+00 -0.4658924827E+00  0.1242249051E-01
           3
 Time step:          11
O   0.1442374803E-02  0.1148521857E+00  0.3445492851E-01
H   0.7952324975E+00 -0.3395606906E+00  0.7655583250E-01
H  -0.6524712752E+00 -0.4365905858E+00  0.1917731803E+00
           3
 Time step:          11
O   0.7488967891E-02  0.9237754190E-01 -0.1022566926E-01
H   0.7793820655E+00 -0.3635690683E+00  0.4236654487E-01
H  -0.6954086243E+00 -0.4216811410E+00  0.3015996035E-01
           3
 Time step:          11
O   0.2168117643E-01  0.7111866433E-01 -0.2088651875E-01
H   0.7271146693E+00 -0.4977392108E+00  0.1166434195E+00
H  -0.7719580655E+00 -0.4621983658E+00  0.1289997534E+00
           3
 Time step:          12
O   0.3151259099E-01  0.6734531885E-01 -0.2399692047E-01
H   0.7784186209E+00 -0.4029898941E+00 -0.1383153418E-01
H  -0.7298139820E+00 -0.4553588762E+00  0.9519416175E-02
           3
 Time step:          12
O   0.4822674836E-02  0.1156115091E+00  0.3099232115E-01
H   0.8339726071E+00 -0.3538217336E+00  0.2562471199E-01
H  -0.6441369496E+00 -0.4300359690E+00  0.2308747760E+00
           3
 Time step:          12
O   0.6923022405E-02  0.9316997009E-01 -0.1539953232E-01
H   0.7468429217E+00 -0.3360515427E+00  0.1052994475E+00
H  -0.7163632900E+00 -0.4573589941E+00  0.5416476716E-01
           3
 Time step:          12
O   0.3155899077E-01  0.6632040302E-01 -0.2335560599E-01
H   0.6990346637E+00 -0.4881877316E+00  0.1000815842E+00
H  -0.8180509227E+00 -0.4427567475E+00  0.1173062966E+00
           3
 Time step:          13
O   0.2866735962E-01  0.6499826035E-01 -0.2367570085E-01
H   0.7900883788E+00 -0.4085696098E+00  0.1808153689E-01
H  -0.7123037429E+00 -0.4575613876E+00  0.2856205577E-01
           3
 Time step:          13
O   0.8653481904E-02  0.1232178861E+00  0.1867871587E-01
H   0.8418863654E+00 -0.3722393461E+00  0.1583192944E-01
H  -0.6322898536E+00 -0.4239498343E+00  0.2560534417E+00
           3
 Time step:          13
O   0.7519354970E-02  0.9215844124E-01 -0.1463815295E-01
H   0.7450606824E+00 -0.3154372226E+00  0.1291974400E+00
H  -0.7464041223E+00 -0.4616195634E+00  0.5362420865E-01
           3
 Time step:          13
O   0.3120216220E-01  0.6039722298E-01 -0.2384567314E-01
H   0.7040278486E+00 -0.4814134370E+00  0.1055378578E+00
H  -0.7981497909E+00 -0.4296944753E+00  0.9010841618E-01
           3
 Time step:          14
O   0.2780072662E-01  0.6173959187E-01 -0.2910296378E-01
H   0.7864945630E+00 -0.4709323255E+00  0.4840410241E-01
H  -0.7085939813E+00 -0.4691660902E+00  0.2247750826E-01
           3
 Time step:          14
O   0.1581712834E-01  0.1142868132E+00  0.1141224291E-01
H   0.8830686741E+00 -0.3644361650E+00  0.2445888033E-01
H  -0.6173806934E+00 -0.4087547473E+00  0.2262181712E+00
           3
 Time step:          14
O   0.5984574439E-02  0.9348334524E-01 -0.2208918382E-01
H   0.7129360939E+00 -0.3078362287E+00  0.1738311435E+00
H  -0.7832836913E+00 -0.4633233834E+00  0.4289255318E-01
           3
 Time step:          14
O   0.2584648001E-01  0.6032180114E-01 -0.1802340143E-01
H   0.6735235003E+00 -0.4426229061E+00  0.1350148267E+00
H  -0.7615623726E+00 -0.4216916163E+00  0.4150969266E-01
           3
 Time step:          15
O   0.2828455714E-01  0.5401492555E-01 -0.2785978751E-01
H   0.8073265162E+00 -0.4903674652E+00  0.6518666245E-01
H  -0.7132805237E+00 -0.4550438981E+00 -0.1818614436E-02
           3
 Time step:          15
O   0.1903747806E-01  0.1178755325E+00  0.8448437010E-02
H   0.8774217306E+00 -0.3302620691E+00  0.2781019912E-01
H  -0.6361237022E+00 -0.4002140376E+00  0.2241770396E+00
           3
 Time step:          15
O   0.1107828828E-01  0.9463380415E-01 -0.2532930425E-01
H   0.7152537800E+00 -0.3094609905E+00  0.2164299516E+00
H  -0.8127999418E+00 -0.5541612136E+00  0.3043785137E-01
           3
 Time step:          15
O   0.2742593963E-01  0.4994152376E-01 -0.1910426448E-01
H   0.6359262878E+00 -0.4365443212E+00  0.1321713636E+00
H  -0.7672478009E+00 -0.4112126271E+00  0.1482303627E-01
           3
 Time step:          16
O   0.2654960745E-01  0.5042899485E-01 -0.2720250689E-01
H   0.8400461879E+00 -0.5057857255E+00  0.7420331544E-01
H  -0.7446482840E+00 -0.4836956224E+00  0.9978326228E-02
           3
 Time step:          16
O   0.2703070197E-01  0.1209154946E+00  0.4901403495E-02
H   0.9027862849E+00 -0.3049865604E+00 -0.1506505748E-01
H  -0.6825475803E+00 -0.4463514156E+00  0.2437223713E+00
           3
 Time step:          16
O   0.9630830299E-02  0.1034103451E+00 -0.2758636687E-01
H   0.7464203011E+00 -0.3221719198E+00  0.2268312899E+00
H  -0.8209680058E+00 -0.5648198922E+00 -0.6959941500E-03
           3
 Time step:          16
O   0.2226258231E-01  0.5073461549E-01 -0.2027941159E-01
H   0.6562385161E+00 -0.4387772180E+00  0.1397349373E+00
H  -0.7844562969E+00 -0.3905526396E+00  0.1628428449E-01
           3
 Time step:          17
O   0.2452158050E-01  0.4454559813E-01 -0.2980387639E-01
H   0.8501460148E+00 -0.5023731659E+00  0.1189371451E+00
H  -0.7340082881E+00 -0.4969073349E+00  0.1702436949E-01
           3
 Time step:          17
O   0.3517592173E-01  0.1168595904E+00  0.1096135043E-02
H   0.9306560972E+00 -0.2934905225E+00 -0.4385165420E-02
H  -0.7409310098E+00 -0.4639075079E+00  0.2575913941E+00
           3
 Time step:          17
O  -0.1488204969E-02  0.1077688840E+00 -0.3200476503E-01
H   0.7563845356E+00 -0.3394677711E+00  0.2512262182E+00
H  -0.8255994212E+00 -0.5569399299E+00  0.1431233317E-01
           3
 Time step:          17
O   0.1688015052E-01  0.5956531634E-01 -0.1500784484E-01
H   0.6804216669E+00 -0.4801191312E+00  0.1670842622E+00
H  -0.7964284252E+00 -0.3688340662E+00  0.1902755245E-01
           3
 Time step:          18
O   0.2406627515E-01  0.4574164988E-01 -0.2704725997E-01
H   0.8141811021E+00 -0.4994994916E+00  0.1231899504E+00
H  -0.7250179033E+00 -0.4946536481E+00 -0.1362714473E-01
           3
 Time step:          18
O   0.3320836770E-01  0.1146344492E+00  0.2428656094E-02
H   0.9350728348E+00 -0.2688269268E+00 -0.1039141684E-01
H  -0.7844103648E+00 -0.4716049525E+00  0.2727028612E+00
           3
 Time step:          18
O  -0.4529720413E-02  0.1093745488E+00 -0.3430856595E-01
H   0.7899719859E+00 -0.3763047429E+00  0.2753120906E+00
H  -0.7787243617E+00 -0.5837410688E+00  0.2938853265E-01
           3
 Time step:          18
O   0.1807916898E-01  0.6021620627E-01 -0.1110659631E-01
H   0.7170693962E+00 -0.4977220119E+00  0.1528861769E+00
H  -0.7959357971E+00 -0.3189297533E+00  0.1429447971E-01
           3
 Time step:          19
O   0.3018678340E-01  0.4445626690E-01 -0.2385856691E-01
H   0.8173352113E+00 -0.5452593422E+00  0.1235153620E+00
H  -0.7406535402E+00 -0.4583962899E+00 -0.9680399193E-03
           3
 Time step:          19
O   0.3779004844E-01  0.1178849469E+00  0.9496343780E-03
H   0.9446071805E+00 -0.2419849368E+00 -0.1617587447E-01
H  -0.8287113024E+00 -0.4623716882E+00  0.2478315188E+00
           3
 Time step:          19
O   0.1721178187E-02  0.1113660891E+00 -0.4148255076E-01
H   0.8000370241E+00 -0.3893515255E+00  0.2743369509E+00
H  -0.6968410996E+00 -0.5748205562E+00  0.3068626252E-01
           3
 Time step:          19
O   0.1813340572E-01  0.6216089770E-01 -0.1851646818E-01
H   0.7696863870E+00 -0.5624309980E+00  0.1627707700E+00
H  -0.8122057054E+00 -0.3258362748E+00  0.8161425514E-02
           3
 Time step:          20
O   0.3004730855E-01  0.3332048544E-01 -0.2717117789E-01
H   0.8363554009E+00 -0.5832163521E+00  0.1318303945E+00
H  -0.7747155464E+00 -0.4263206745E+00  0.3731200921E-01
           3
 Time step:          20
O   0.3356988122E-01  0.1120724440E+00  0.1620430795E-02
H   0.8997698806E+00 -0.2799096739E+00  0.2040965383E-01
H  -0.8623436243E+00 -0.4562665209E+00  0.2821997737E+00
           3
 Time step:          20
O  -0.7485969708E-02  0.1123595642E+00 -0.3559478581E-01
H   0.8339878177E+00 -0.4127246743E+00  0.3082412651E+00
H  -0.6563186207E+00 -0.5538543618E+00  0.8651756669E-01
           3
 Time step:          20
O   0.1441702901E-01  0.6023837407E-01 -0.1865505411E-01
H   0.8375471349E+00 -0.6203516090E+00  0.1710168275E+00
H  -0.8196436298E+00 -0.3228200378E+00  0.4799864869E-01
