           3
 Time step:           1
O  -0.3481478949E-02  0.1170688795E+00 -0.1648801253E-02
H   0.8014583865E+00 -0.4534648108E+00 -0.7547690381E-02
H  -0.7489886915E+00 -0.4845513250E+00 -0.1803851670E-02
           3
 Time step:           1
O  -0.1776182333E-02  0.1194431533E+00  0.1151204653E-03
H   0.7348746688E+00 -0.4731343490E+00  0.2763471811E-01
H  -0.7492544827E+00 -0.4716401747E+00 -0.1163474819E-01
           3
 Time step:           1
O  -0.3141164498E-02  0.1252684061E+00  0.3460484064E-02
H   0.7978724051E+00 -0.4863824820E+00 -0.2090698013E-01
H  -0.7617490918E+00 -0.4600595234E+00  0.1155770349E-01
           3
 Time step:           1
O   0.9356774486E-03  0.1115865784E+00  0.1652611971E-02
H   0.7945165097E+00 -0.4747333139E+00  0.2564086402E-02
H  -0.7752701653E+00 -0.4657360444E+00 -0.1053509640E-02
           3
 Time step:           2
O  -0.4448526545E-02  0.1204060724E+00 -0.1006688312E-01
H   0.7982912530E+00 -0.4678054082E+00 -0.2513494468E-01
H  -0.7927695425E+00 -0.4932778101E+00 -0.2207131054E-01
           3
 Time step:           2
O   0.3683794554E-02  0.1126355448E+00  0.5557795127E-03
H   0.7121624389E+00 -0.4783139038E+00  0.2054587580E-01
H  -0.7490392910E+00 -0.5006199764E+00 -0.2025347526E-02
           3
 Time step:           2
O  -0.2711557876E-02  0.1179237373E+00 -0.2087389749E-02
H   0.8250885395E+00 -0.4820833817E+00 -0.3350817473E-02
H  -0.8000013530E+00 -0.4599082997E+00  0.2388967598E-01
           3
 Time step:           2
O  -0.4123243020E-02  0.1082692662E+00 -0.2989130349E-02
H   0.8051992376E+00 -0.4929132027E+00  0.5175957723E-01
H  -0.8015665970E+00 -0.4589896332E+00  0.3135452299E-02
           3
 Time step:           3
O   0.3354598574E-02  0.1222839889E+00 -0.1378840275E-01
H   0.8009928490E+00 -0.4707619718E+00 -0.4041089489E-01
H  -0.7985647994E+00 -0.4604296099E+00 -0.3678871666E-01
           3
 Time step:           3
O  -0.3541822698E-02  0.1131366539E+00  0.4298512707E-02
H   0.7375330607E+00 -0.5076700494E+00  0.7679818286E-02
H  -0.7650097246E+00 -0.5119344451E+00  0.8202925715E-02
           3
 Time step:           3
O   0.5417516076E-02  0.1074155100E+00 -0.6410388188E-02
H   0.8354834136E+00 -0.4796907012E+00  0.2019264593E-01
H  -0.8361350110E+00 -0.4461573341E+00  0.5696934433E-01
           3
 Time step:           3
O  -0.1489464812E-01  0.1090609763E+00  0.2543129290E-02
H   0.8097910980E+00 -0.4877669784E+00  0.6495792707E-01
H  -0.7757247308E+00 -0.4448581084E+00 -0.4944978400E-02
           3
 Time step:           4
O   0.8494365737E-02  0.1205976936E+00 -0.1883557747E-01
H   0.8440553494E+00 -0.4711040148E+00 -0.3437835462E-01
H  -0.7715208722E+00 -0.4533097066E+00 -0.6597690703E-01
           3
 Time step:           4
O  -0.6303387409E-02  0.1108047937E+00  0.1058940658E-01
H   0.7647891749E+00 -0.4772498954E+00  0.4236374862E-01
H  -0.7646626880E+00 -0.5426138203E+00 -0.2319999655E-01
           3
 Time step:           4
O   0.8015560945E-02  0.1022280853E+00 -0.8102897053E-02
H   0.8490968662E+00 -0.4533630792E+00  0.4047657431E-01
H  -0.8477064169E+00 -0.4540876294E+00  0.8056345225E-01
           3
 Time step:           4
O  -0.9783802476E-02  0.1043395932E+00  0.3368884820E-02
H   0.8135581592E+00 -0.4774571611E+00  0.7442221871E-01
H  -0.7853995984E+00 -0.4395124775E+00 -0.4250711100E-03
           3
 Time step:           5
O   0.8996439070E-02  0.1086388495E+00 -0.2431178864E-01
H   0.8577803642E+00 -0.5298627408E+00 -0.4897298125E-01
H  -0.7880225541E+00 -0.4484340866E+00 -0.3573333842E-01
           3
 Time step:           5
O  -0.7343926527E-02  0.1063173311E+00  0.2357909729E-01
H   0.7686201242E+00 -0.4667224154E+00  0.4759571024E-01
H  -0.7625357577E+00 -0.5244082433E+00 -0.6916100791E-02
           3
 Time step:           5
O   0.1623422925E-01  0.1024491265E+00 -0.1669248633E-01
H   0.8691805245E+00 -0.4290060310E+00  0.3331114012E-01
H  -0.8677220542E+00 -0.4462644353E+00  0.6833520876E-01
           3
 Time step:           5
O  -0.9299769012E-02  0.1050499521E+00 -0.1498098226E-02
H   0.8145986122E+00 -0.4552922181E+00  0.6102861629E-01
H  -0.7833499917E+00 -0.4720503777E+00  0.1821992392E-01
           3
 Time step:           6
O   0.9199150156E-02  0.9424813079E-01 -0.2194404405E-01
H   0.8452905996E+00 -0.5209769178E+00 -0.3981129703E-01
H  -0.8236643920E+00 -0.4608610656E+00 -0.5015395775E-01
           3
 Time step:           6
O  -0.6363287256E-02  0.1061028328E+00  0.2726429481E-01
H   0.8014032843E+00 -0.4721930798E+00  0.5129325328E-01
H  -0.8091154333E+00 -0.5279139855E+00  0.1959550296E-01
           3
 Time step:           6
O   0.1216167539E-01  0.9969057194E-01 -0.1171801076E-01
H   0.8910953262E+00 -0.4225644355E+00  0.7879589698E-02
H  -0.8808781391E+00 -0.4631516482E+00  0.5597937962E-01
           3
 Time step:           6
O  -0.1364776422E-01  0.1045185852E+00 -0.6493728607E-02
H   0.8433997339E+00 -0.4610731396E+00  0.6918131006E-01
H  -0.8003321103E+00 -0.5092366323E+00  0.4064477959E-01
           3
 Time step:           7
O   0.3389668990E-02  0.9352211769E-01 -0.2191293963E-01
H   0.8352553232E+00 -0.5162038005E+00 -0.3947519066E-01
H  -0.8255997884E+00 -0.4756948432E+00 -0.5548273297E-01
           3
 Time step:           7
O  -0.1073696249E-01  0.1085365515E+00  0.3408558910E-01
H   0.8069363764E+00 -0.4267852422E+00  0.6552600170E-01
H  -0.8253746218E+00 -0.5839922757E+00  0.4447733849E-01
           3
 Time step:           7
O   0.5997882247E-02  0.1069841776E+00 -0.1442985999E-01
H   0.8882598414E+00 -0.4444643829E+00 -0.1549250863E-01
H  -0.8315853793E+00 -0.4819507718E+00  0.6956648502E-01
           3
 Time step:           7
O  -0.1773840911E-01  0.1009095807E+00 -0.4093587104E-02
H   0.8382600057E+00 -0.4661200966E+00  0.7686367824E-01
H  -0.8064790557E+00 -0.5325802713E+00  0.1604545454E-01
           3
 Time step:           8
O   0.1289414187E-01  0.8643742965E-01 -0.2056918647E-01
H   0.8481885475E+00 -0.5015737856E+00 -0.3065373717E-01
H  -0.8339526155E+00 -0.4807943476E+00 -0.2614335814E-01
           3
 Time step:           8
O  -0.1221360151E-01  0.1114208145E+00  0.2699801331E-01
H   0.8040777965E+00 -0.4232969931E+00  0.9144476028E-01
H  -0.7549265347E+00 -0.5512376089E+00  0.7161603856E-01
           3
 Time step:           8
O   0.4838870574E-02  0.1117960275E+00 -0.1179953715E-01
H   0.8988330732E+00 -0.4359715169E+00 -0.3139749838E-01
H  -0.8102338250E+00 -0.4862718802E+00  0.8876071757E-01
           3
 Time step:           8
O  -0.7904832783E-02  0.9631559658E-01 -0.1664964302E-01
H   0.8403855131E+00 -0.5049100282E+00  0.7184150342E-01
H  -0.8014266384E+00 -0.5855588300E+00  0.4157595970E-01
           3
 Time step:           9
O   0.1560912396E-01  0.7711263811E-01 -0.2229472684E-01
H   0.8162048087E+00 -0.4972689564E+00 -0.3652492176E-01
H  -0.8354220197E+00 -0.5187883406E+00 -0.7356857051E-02
           3
 Time step:           9
O  -0.1290576186E-02  0.1147535185E+00  0.2248052913E-01
H   0.8436247401E+00 -0.3949501185E+00  0.9122404802E-01
H  -0.7396541870E+00 -0.5237884831E+00  0.1122293044E+00
           3
 Time step:           9
O   0.2632856244E-02  0.1081061040E+00 -0.1427308660E-01
H   0.8995349797E+00 -0.4486702701E+00 -0.2161257177E-01
H  -0.8477507090E+00 -0.4594090910E+00  0.9270815026E-01
           3
 Time step:           9
O   0.2534001246E-02  0.8024752393E-01 -0.2247447028E-01
H   0.8322508751E+00 -0.5353241918E+00  0.9915001440E-01
H  -0.8271163111E+00 -0.5585726572E+00  0.4472984937E-01
           3
 Time step:          10
O   0.2201757819E-01  0.7757077408E-01 -0.2434931133E-01
H   0.8273933643E+00 -0.4841058809E+00 -0.5426790777E-01
H  -0.8449888340E+00 -0.5052414517E+00 -0.7968688226E-02
           3
 Time step:          10
O   0.4464593988E-03  0.1213739937E+00  0.2305107653E-01
H   0.8452854773E+00 -0.3875555940E+00  0.8567388075E-01
H  -0.7341069473E+00 -0.5027407013E+00  0.1533191591E+00
           3
 Time step:          10
O   0.3663198590E-02  0.9770590081E-01 -0.1055004009E-01
H   0.8702255796E+00 -0.4093218381E+00  0.2807517163E-01
H  -0.8415946759E+00 -0.4444259938E+00  0.9223766401E-01
           3
 Time step:          10
O   0.1323363665E-01  0.7769826664E-01 -0.2130627179E-01
H   0.8037221172E+00 -0.5263238951E+00  0.1004243406E+00
H  -0.8207888054E+00 -0.5311542124E+00  0.1100016798E+00
           3
 Time step:          11
O   0.2871997300E-01  0.7559170914E-01 -0.2796462373E-01
H   0.8421012018E+00 -0.4709301970E+00 -0.2823361469E-01
H  -0.8342447536E+00 -0.5050327559E+00  0.1175612356E-01
           3
 Time step:          11
O   0.1860069038E-02  0.1196980120E+00  0.3470817508E-01
H   0.8709819202E+00 -0.3780614779E+00  0.7621848837E-01
H  -0.7348503508E+00 -0.4750028693E+00  0.1880909888E+00
           3
 Time step:          11
O   0.7490712317E-02  0.9674879848E-01 -0.1012968235E-01
H   0.8704406007E+00 -0.3992046469E+00  0.4128354763E-01
H  -0.7864948471E+00 -0.4554262508E+00  0.2971945113E-01
           3
 Time step:          11
O   0.2165950663E-01  0.7590695149E-01 -0.2077702970E-01
H   0.8167537446E+00 -0.5369339233E+00  0.1171846904E+00
H  -0.8612531972E+00 -0.4990034612E+00  0.1267206697E+00
           3
 Time step:          12
O   0.3182827495E-01  0.7132024680E-01 -0.2395418424E-01
H   0.8608772919E+00 -0.4308682323E+00 -0.1358392351E-01
H  -0.8172831963E+00 -0.4905706890E+00  0.8593494974E-02
           3
 Time step:          12
O   0.5145972716E-02  0.1196492381E+00  0.3147615724E-01
H   0.9075409663E+00 -0.3881667453E+00  0.2432671787E-01
H  -0.7228367004E+00 -0.4597778884E+00  0.2244933123E+00
           3
 Time step:          12
O   0.6870366562E-02  0.9679728236E-01 -0.1517794696E-01
H   0.8365584012E+00 -0.3667976813E+00  0.1035489005E+00
H  -0.8052430147E+00 -0.4841856422E+00  0.5239830621E-01
           3
 Time step:          12
O   0.3162709626E-01  0.7064412771E-01 -0.2307709611E-01
H   0.7881069506E+00 -0.5229969689E+00  0.9911079351E-01
H  -0.9082041816E+00 -0.4765737716E+00  0.1138565719E+00
           3
 Time step:          13
O   0.2922075779E-01  0.6805276955E-01 -0.2361501743E-01
H   0.8665586107E+00 -0.4276740658E+00  0.1845745023E-01
H  -0.7975575237E+00 -0.4869381743E+00  0.2722297385E-01
           3
 Time step:          13
O   0.8797089411E-02  0.1262488233E+00  0.1945149080E-01
H   0.9123820098E+00 -0.4016046120E+00  0.1359494026E-01
H  -0.7050648398E+00 -0.4426916761E+00  0.2460249288E+00
           3
 Time step:          13
O   0.7615084189E-02  0.9476423573E-01 -0.1421188048E-01
H   0.8284892491E+00 -0.3382816990E+00  0.1257679002E+00
H  -0.8313521054E+00 -0.4801343192E+00  0.5028794165E-01
           3
 Time step:          13
O   0.3141773527E-01  0.6394972910E-01 -0.2333280868E-01
H   0.7889293901E+00 -0.5085248718E+00  0.1023148671E+00
H  -0.8864729133E+00 -0.4589685022E+00  0.8519120989E-01
           3
 Time step:          14
O   0.2853485170E-01  0.6370127209E-01 -0.2899371231E-01
H   0.8557093056E+00 -0.4803416103E+00  0.4869136800E-01
H  -0.7894607746E+00 -0.4908926406E+00  0.2045620080E-01
           3
 Time step:          14
O   0.1575874980E-01  0.1162026901E+00  0.1251393023E-01
H   0.9498559142E+00 -0.3882695092E+00  0.2130270525E-01
H  -0.6832413479E+00 -0.4153302472E+00  0.2118883388E+00
           3
 Time step:          14
O   0.6454855286E-02  0.9487192750E-01 -0.2138088443E-01
H   0.7857516717E+00 -0.3201955496E+00  0.1676267486E+00
H  -0.8635635779E+00 -0.4730036733E+00  0.3785480333E-01
           3
 Time step:          14
O   0.2627684859E-01  0.6286903418E-01 -0.1722643395E-01
H   0.7513636161E+00 -0.4594258610E+00  0.1289025553E+00
H  -0.8462333087E+00 -0.4453184048E+00  0.3497247733E-01
           3
 Time step:          15
O   0.2907003953E-01  0.5484197261E-01 -0.2768342034E-01
H   0.8698477978E+00 -0.4905375355E+00  0.6529501523E-01
H  -0.7882690005E+00 -0.4680007385E+00 -0.4726271154E-02
           3
 Time step:          15
O   0.1869762706E-01  0.1185222953E+00  0.9940031347E-02
H   0.9399786394E+00 -0.3481211153E+00  0.2371844753E-01
H  -0.6932864879E+00 -0.3926204258E+00  0.2045941704E+00
           3
 Time step:          15
O   0.1216743057E-01  0.9464227658E-01 -0.2423360689E-01
H   0.7733123449E+00 -0.3087035280E+00  0.2058340268E+00
H  -0.8881453992E+00 -0.5550531507E+00  0.2364284147E-01
           3
 Time step:          15
O   0.2825920061E-01  0.5115846764E-01 -0.1793413463E-01
H   0.7020315910E+00 -0.4390167987E+00  0.1218180267E+00
H  -0.8465786422E+00 -0.4280555118E+00  0.6604044300E-02
           3
 Time step:          16
O   0.2723361545E-01  0.5012840863E-01 -0.2695197015E-01
H   0.8971684355E+00 -0.4977241017E+00  0.7415426429E-01
H  -0.8126271230E+00 -0.4869863346E+00  0.6050852237E-02
           3
 Time step:          16
O   0.2642845354E-01  0.1202781436E+00  0.6795455376E-02
H   0.9612501771E+00 -0.3167584800E+00 -0.2013668723E-01
H  -0.7314525710E+00 -0.4244634455E+00  0.2187315645E+00
           3
 Time step:          16
O   0.1131115974E-01  0.1019581184E+00 -0.2604797000E-01
H   0.7886136875E+00 -0.3075071350E+00  0.2109735224E+00
H  -0.8898316211E+00 -0.5564349005E+00 -0.9255698395E-02
           3
 Time step:          16
O   0.2385545426E-01  0.5017684744E-01 -0.1860276259E-01
H   0.7036979861E+00 -0.4206439328E+00  0.1230077139E+00
H  -0.8571978685E+00 -0.3998330171E+00  0.6399695124E-02
           3
 Time step:          17
O   0.2506509757E-01  0.4322343160E-01 -0.2947749951E-01
H   0.9032044293E+00 -0.4872452385E+00  0.1187785703E+00
H  -0.7956934185E+00 -0.4910498037E+00  0.1200268270E-01
           3
 Time step:          17
O   0.3453850483E-01  0.1151360600E+00  0.3310610172E-02
H   0.9854434680E+00 -0.2991933154E+00 -0.1049705080E-01
H  -0.7856012844E+00 -0.4308487984E+00  0.2285550776E+00
           3
 Time step:          17
O   0.5138788699E-03  0.1049482278E+00 -0.3007545760E-01
H   0.7857667548E+00 -0.3125810306E+00  0.2308717362E+00
H  -0.8867587628E+00 -0.5390571481E+00  0.4044801646E-02
           3
 Time step:          17
O   0.1928126542E-01  0.5710655188E-01 -0.1277911368E-01
H   0.7079372101E+00 -0.4397298979E+00  0.1432552853E+00
H  -0.8620545212E+00 -0.3701977314E+00  0.7482055355E-02
           3
 Time step:          18
O   0.2445832349E-01  0.4352896896E-01 -0.2665005681E-01
H   0.8645592329E+00 -0.4785346754E+00  0.1230588678E+00
H  -0.7816186346E+00 -0.4804987401E+00 -0.1980048009E-01
           3
 Time step:          18
O   0.3271832301E-01  0.1120165657E+00  0.4879770716E-02
H   0.9868311780E+00 -0.2685844903E+00 -0.1761812798E-01
H  -0.8283907070E+00 -0.4302962792E+00  0.2410254227E+00
           3
 Time step:          18
O  -0.2515063428E-02  0.1054139026E+00 -0.3209768434E-01
H   0.8114478739E+00 -0.3401103894E+00  0.2521061079E+00
H  -0.8321769333E+00 -0.5570719502E+00  0.1750334966E-01
           3
 Time step:          18
O   0.2096035171E-01  0.5610350024E-01 -0.8402012541E-02
H   0.7299639865E+00 -0.4389456196E+00  0.1231254531E+00
H  -0.8545605883E+00 -0.3124291777E+00  0.1127985552E-02
           3
 Time step:          19
O   0.3039194591E-01  0.4152150269E-01 -0.2340013634E-01
H   0.8670727833E+00 -0.5200796259E+00  0.1236542406E+00
H  -0.7936474566E+00 -0.4369953587E+00 -0.8383139435E-02
           3
 Time step:          19
O   0.3753219112E-01  0.1145251944E+00  0.3572175773E-02
H   0.9943519487E+00 -0.2360419065E+00 -0.2461959891E-01
H  -0.8743633531E+00 -0.4149886458E+00  0.2146502038E+00
           3
 Time step:          19
O   0.3521965049E-02  0.1066079747E+00 -0.3913059425E-01
H   0.8187306384E+00 -0.3472980670E+00  0.2502882519E+00
H  -0.7441168458E+00 -0.5413531089E+00  0.1740465176E-01
           3
 Time step:          19
O   0.2102904763E-01  0.5672850727E-01 -0.1542845131E-01
H   0.7752814810E+00 -0.4907511826E+00  0.1285903404E+00
H  -0.8637604967E+00 -0.3112930600E+00 -0.6671222155E-02
           3
 Time step:          20
O   0.3005938069E-01  0.2983635634E-01 -0.2665930134E-01
H   0.8872169136E+00 -0.5555135395E+00  0.1324324385E+00
H  -0.8257686684E+00 -0.3987233072E+00  0.2858544846E-01
           3
 Time step:          20
O   0.3352926328E-01  0.1080747143E+00  0.4376949281E-02
H   0.9487851695E+00 -0.2685628897E+00  0.1062997799E-01
H  -0.9107142244E+00 -0.4041612434E+00  0.2482279225E+00
           3
 Time step:          20
O  -0.5986048507E-02  0.1072334601E+00 -0.3324405408E-01
H   0.8545892197E+00 -0.3681520345E+00  0.2852416659E+00
H  -0.7007268076E+00 -0.5170653551E+00  0.7220629597E-01
           3
 Time step:          20
O   0.1694692326E-01  0.5393601887E-01 -0.1530718427E-01
H   0.8433106718E+00 -0.5422646122E+00  0.1343309034E+00
H  -0.8655617085E+00 -0.3008759029E+00  0.3154710297E-01
