3
Units: a.u.;  Time step: 1
O  -0.8354631043E-05  0.1276904697E-03 -0.6799889530E-04
H   0.1182433956E-02 -0.4276272891E-03  0.1244409631E-02
H  -0.8841310025E-03 -0.4536101501E-03 -0.3409331690E-04
O   0.1237332508E-03 -0.1385059260E-03 -0.1243989536E-04
H  -0.7436237953E-03  0.1454437085E-03 -0.3666914742E-04
H  -0.2564905598E-03  0.1193829432E-02  0.2994954474E-03
3
Units: a.u.;  Time step: 2
O  -0.2772153060E-04  0.1390478683E-03 -0.6714388799E-04
H   0.1074535823E-02 -0.4495218799E-03  0.1220057383E-02
H  -0.8827655433E-03 -0.5738416062E-03  0.2072493308E-03
O   0.1100606528E-03 -0.1386853140E-03 -0.4642386714E-04
H  -0.6631586457E-03 -0.9561503660E-05  0.7495151388E-06
H  -0.2399005039E-03  0.1401360169E-02  0.5343466090E-03
