           3
Time step:                   1 Sim. Time [au]          20.00
O    -0.51768484E-03    0.11776200E+00   -0.87153694E-03
H     0.75792932E+00   -0.47682177E+00    0.15149550E-01
H    -0.74988585E+00   -0.46365579E+00   -0.20367433E-02
           3
Time step:                   2 Sim. Time [au]          40.00
O    -0.92094421E-03    0.11781725E+00   -0.18961063E-02
H     0.76223805E+00   -0.48060864E+00    0.28024636E-01
H    -0.74820752E+00   -0.46131455E+00   -0.44827325E-02
           3
Time step:                   3 Sim. Time [au]          60.00
O    -0.12076134E-02    0.11802613E+00   -0.31430495E-02
H     0.76965410E+00   -0.48340885E+00    0.37581840E-01
H    -0.75162363E+00   -0.46207347E+00   -0.75884977E-02
           3
Time step:                   4 Sim. Time [au]          80.00
O    -0.13608419E-02    0.11830421E+00   -0.46963436E-02
H     0.77948858E+00   -0.48555059E+00    0.44718047E-01
H    -0.76019633E+00   -0.46456789E+00   -0.11708178E-01
           3
Time step:                   5 Sim. Time [au]         100.00
O    -0.13641126E-02    0.11860573E+00   -0.66348358E-02
H     0.79030517E+00   -0.48710610E+00    0.50452203E-01
H    -0.77296286E+00   -0.46833334E+00   -0.17287390E-01
           3
Time step:                   6 Sim. Time [au]         120.00
O    -0.11977391E-02    0.11888660E+00   -0.89707409E-02
H     0.80032184E+00   -0.48788875E+00    0.55483332E-01
H    -0.78662437E+00   -0.47297471E+00   -0.24658260E-01
           3
Time step:                   7 Sim. Time [au]         140.00
O    -0.81955537E-03    0.11910018E+00   -0.11567171E-01
H     0.80833876E+00   -0.48758358E+00    0.60265252E-01
H    -0.79764947E+00   -0.47801789E+00   -0.33540533E-01
           3
Time step:                   8 Sim. Time [au]         160.00
O    -0.13548967E-03    0.11920366E+00   -0.14173792E-01
H     0.81407737E+00   -0.48578502E+00    0.65057210E-01
H    -0.80527454E+00   -0.48294916E+00   -0.43045918E-01
           3
Time step:                   9 Sim. Time [au]         180.00
O     0.10147977E-02    0.11915178E+00   -0.16596103E-01
H     0.81780817E+00   -0.48191249E+00    0.69976129E-01
H    -0.81031904E+00   -0.48721843E+00   -0.52463612E-01
           3
Time step:                  10 Sim. Time [au]         200.00
O     0.28093783E-02    0.11887552E+00   -0.18769031E-01
H     0.81998601E+00   -0.47511044E+00    0.75138637E-01
H    -0.81347659E+00   -0.49042186E+00   -0.61403986E-01
           3
Time step:                  11 Sim. Time [au]         220.00
O     0.52896740E-02    0.11823690E+00   -0.20713695E-01
H     0.82114801E+00   -0.46448728E+00    0.80743834E-01
H    -0.81499968E+00   -0.49228880E+00   -0.69664764E-01
           3
Time step:                  12 Sim. Time [au]         240.00
O     0.81950915E-02    0.11695481E+00   -0.22484822E-01
H     0.82196107E+00   -0.45048492E+00    0.87099215E-01
H    -0.81483296E+00   -0.49251372E+00   -0.77186292E-01
           3
Time step:                  13 Sim. Time [au]         260.00
O     0.11045793E-01    0.11463364E+00   -0.24143476E-01
H     0.82330808E+00   -0.43649404E+00    0.94614684E-01
H    -0.81272640E+00   -0.49059651E+00   -0.84016768E-01
           3
Time step:                  14 Sim. Time [au]         280.00
O     0.13481710E-01    0.11122723E+00   -0.25746689E-01
H     0.82659724E+00   -0.42634459E+00    0.10370041E+00
H    -0.80827042E+00   -0.48568067E+00   -0.90277938E-01
           3
Time step:                  15 Sim. Time [au]         300.00
O     0.15443876E-01    0.10753739E+00   -0.27344750E-01
H     0.83482243E+00   -0.42067596E+00    0.11446103E+00
H    -0.80065411E+00   -0.47673439E+00   -0.96147819E-01
           3
Time step:                  16 Sim. Time [au]         320.00
O     0.17092283E-01    0.10448805E+00   -0.28983526E-01
H     0.85140721E+00   -0.41794377E+00    0.12618931E+00
H    -0.78762831E+00   -0.46398361E+00   -0.10187189E+00
           3
Time step:                  17 Sim. Time [au]         340.00
O     0.18690576E-01    0.10227565E+00   -0.30716464E-01
H     0.87108230E+00   -0.41643652E+00    0.13713054E+00
H    -0.76679705E+00   -0.45060870E+00   -0.10783482E+00
           3
Time step:                  18 Sim. Time [au]         360.00
O     0.20516662E-01    0.10069504E+00   -0.32645952E-01
H     0.88380683E+00   -0.41497905E+00    0.14526863E+00
H    -0.74783269E+00   -0.44057894E+00   -0.11473261E+00
           3
Time step:                  19 Sim. Time [au]         380.00
O     0.22738362E-01    0.99541100E-01   -0.34990064E-01
H     0.88973876E+00   -0.41301013E+00    0.14989634E+00
H    -0.74042280E+00   -0.43534772E+00   -0.12364448E+00
           3
Time step:                  20 Sim. Time [au]         400.00
O     0.25328333E-01    0.98673889E-01   -0.38036290E-01
H     0.89181511E+00   -0.41031752E+00    0.15205962E+00
H    -0.74056147E+00   -0.43455161E+00   -0.13549189E+00
