6
Units: a.u.;  Time step: 1
C   0.3422431454E-04  0.4457940962E-03 -0.2077319218E-03
N   0.4165421238E-03 -0.3851417521E-03 -0.3626705369E-04
H  -0.4974685438E-02 -0.2059773527E-02  0.1129006027E-02
H  -0.1631209358E-02  0.2116520125E-02 -0.1352891282E-03
H  -0.3321700187E-02  0.8221339475E-03  0.1232292937E-02
H   0.3685944967E-02 -0.8358801025E-03  0.7805571425E-03
6
Units: a.u.;  Time step: 2
C   0.5215846826E-04  0.4475883783E-03 -0.5183609026E-03
N   0.3871309086E-03 -0.3806534169E-03  0.2947118379E-03
H  -0.5497828367E-02 -0.2119785015E-02  0.1072782232E-02
H  -0.1929001374E-02  0.2154448650E-02 -0.4412763066E-03
H  -0.2692810618E-02  0.7028305179E-03  0.6974357705E-03
H   0.4072986147E-02 -0.7782429480E-03  0.7797516270E-03
6
Units: a.u.;  Time step: 3
C   0.6514671762E-04  0.4542261637E-03 -0.7947447061E-03
N   0.3468868385E-03 -0.3778214848E-03  0.6300578528E-03
H  -0.5629297036E-02 -0.2216011855E-02  0.8637057186E-03
H  -0.2170830204E-02  0.2241898379E-02 -0.8502058488E-03
H  -0.2005518536E-02  0.5196848862E-03  0.7778285161E-04
H   0.4163452701E-02 -0.7047659534E-03  0.6507977357E-03
6
Units: a.u.;  Time step: 4
C   0.5839258351E-04  0.4662723752E-03 -0.1014286337E-02
N   0.2982608754E-03 -0.3752554996E-03  0.9407310094E-03
H  -0.5151352588E-02 -0.2386488548E-02  0.4036085609E-03
H  -0.2298017571E-02  0.2402733066E-02 -0.1159142211E-02
H  -0.1288932402E-02  0.2525786414E-03 -0.5280340724E-03
H   0.3852287831E-02 -0.6072129412E-03  0.3245724100E-03
6
Units: a.u.;  Time step: 5
C   0.1887973338E-04  0.4899981884E-03 -0.1124541507E-02
N   0.2364483902E-03 -0.3752085238E-03  0.1166778273E-02
H  -0.3880562687E-02 -0.2705765359E-02 -0.4096591348E-03
H  -0.2141900818E-02  0.2677530298E-02 -0.1075171115E-02
H  -0.5805297185E-03 -0.9346890757E-04 -0.1010861885E-02
H   0.3046736748E-02 -0.5000476512E-03 -0.2906535527E-03
6
Units: a.u.;  Time step: 6
C  -0.6417555706E-04  0.5342675550E-03 -0.1064731593E-02
N   0.1776162235E-03 -0.3836375903E-03  0.1252613323E-02
H  -0.1819906057E-02 -0.3175065815E-02 -0.1576150873E-02
H  -0.1652179694E-02  0.3023477499E-02 -0.5701170380E-03
H  -0.8577122482E-04 -0.3836952844E-03 -0.1302321869E-02
H   0.1808782300E-02 -0.4968384826E-03 -0.1243180927E-02
6
Units: a.u.;  Time step: 7
C  -0.1034872405E-03  0.6433369352E-03 -0.9761407738E-03
N   0.1235337203E-03 -0.3949763485E-03  0.1314841726E-02
H   0.1623306202E-03 -0.5221293946E-02 -0.2654783623E-02
H  -0.1010752254E-02  0.4515227656E-02 -0.7742754695E-04
H   0.1668458012E-03 -0.1830130714E-02 -0.1414640531E-02
H   0.1479865296E-03  0.3720950966E-03 -0.2464295228E-02
6
Units: a.u.;  Time step: 8
C  -0.1306731922E-03  0.6784339649E-03 -0.1008435555E-02
N  -0.1043268496E-04 -0.4009483182E-03  0.1454628722E-02
H   0.1982720869E-02 -0.5489506271E-02 -0.3628963305E-02
H  -0.1494513296E-04  0.4749244740E-02  0.4868528578E-03
H   0.9390907932E-03 -0.2018200601E-02 -0.1816613671E-02
H  -0.1254942039E-02  0.2591409367E-03 -0.3210065501E-02
