           3
Units: angs.;  Time step:           1  ;  Sim. Time [au]:          20.00
O    -0.12083938E-02    0.11830991E+00    0.71734779E-03
H     0.76066994E+00   -0.47523035E+00   -0.76389825E-02
H    -0.74248771E+00   -0.47367788E+00   -0.36354917E-02
           3
Units: angs.;  Time step:           1  ;  Sim. Time [au]:          20.00
O     0.80985387E-04    0.11694942E+00    0.45556695E-03
H     0.76694201E+00   -0.47590015E+00   -0.74345295E-02
H    -0.76900922E+00   -0.45157862E+00    0.31604714E-03
           3
Units: angs.;  Time step:           1  ;  Sim. Time [au]:          20.00
O    -0.33627926E-03    0.11839556E+00    0.65861546E-04
H     0.76654469E+00   -0.48039230E+00   -0.61359349E-02
H    -0.76196819E+00   -0.46988778E+00    0.52038584E-02
           3
Units: angs.;  Time step:           1  ;  Sim. Time [au]:          20.00
O     0.84435611E-03    0.11710864E+00   -0.66826162E-04
H     0.75418761E+00   -0.46371653E+00   -0.39391948E-02
H    -0.76820777E+00   -0.46619053E+00    0.51147382E-02
           3
Units: angs.;  Time step:           1  ;  Sim. Time [au]:          20.00
O     0.23959871E-02    0.11751167E+00    0.14205680E-02
H     0.75329894E+00   -0.46996488E+00   -0.73862035E-02
H    -0.79179511E+00   -0.46635384E+00   -0.14960403E-01
           3
Units: angs.;  Time step:           1  ;  Sim. Time [au]:          20.00
O    -0.44172695E-03    0.11890421E+00   -0.11987099E-02
H     0.76595808E+00   -0.46702691E+00    0.10228920E-01
H    -0.75989908E+00   -0.49126558E+00    0.88641280E-02
           3
Units: angs.;  Time step:           1  ;  Sim. Time [au]:          20.00
O    -0.30965923E-03    0.11754233E+00   -0.82965765E-03
H     0.76003487E+00   -0.46651093E+00    0.13038239E-01
H    -0.75606282E+00   -0.47027618E+00    0.19951548E-03
           3
Units: angs.;  Time step:           1  ;  Sim. Time [au]:          20.00
O     0.97105547E-03    0.11849638E+00   -0.14038561E-02
H     0.74873717E+00   -0.48604620E+00    0.12547242E-01
H    -0.76507089E+00   -0.46581552E+00    0.97915471E-02
           3
Units: angs.;  Time step:           1  ;  Sim. Time [au]:          20.00
O     0.20802456E-03    0.11737082E+00   -0.41768812E-03
H     0.75600119E+00   -0.46957273E+00    0.78963913E-02
H    -0.76022122E+00   -0.46447187E+00   -0.11991736E-02
           3
Units: angs.;  Time step:           1  ;  Sim. Time [au]:          20.00
O     0.98697769E-03    0.11894732E+00   -0.90415747E-03
H     0.74609216E+00   -0.47761489E+00    0.91261648E-02
H    -0.76265778E+00   -0.48140610E+00    0.52847855E-02
