           3
Time step:                   1 Sim. Time [au]          40.00
O     0.00000000E+00    0.11759214E+00    0.00000000E+00
H     0.75449565E+00   -0.46876320E+00    0.00000000E+00
H    -0.75449565E+00   -0.46876320E+00    0.00000000E+00
           3
Time step:                   2 Sim. Time [au]          80.00
O     0.00000000E+00    0.11651634E+00    0.00000000E+00
H     0.74832564E+00   -0.46022569E+00    0.00000000E+00
H    -0.74832564E+00   -0.46022569E+00    0.00000000E+00
