           3
 Time step:           1
O   0.0000000000E+00 -0.3504628549E-04  0.0000000000E+00
H  -0.2049021472E-03  0.2781277389E-03  0.0000000000E+00
H   0.2049021472E-03  0.2781277389E-03  0.0000000000E+00
           3
 Time step:           2
O   0.0000000000E+00 -0.5720524492E-04  0.0000000000E+00
H  -0.2926904353E-03  0.4539815047E-03  0.0000000000E+00
H   0.2926904353E-03  0.4539815047E-03  0.0000000000E+00
