           6
Units: angs.;  Time step:           1  ;  Sim. Time [au]:          20.67
C    -0.62050986E-02   -0.59956187E-02    0.33337850E-01
N    -0.55050314E-02    0.34839312E-03    0.12871469E+01
H     0.11204726E+01    0.11467934E+00   -0.44525624E+00
H     0.92303658E+00   -0.89344337E-01    0.18938913E+01
H    -0.83409242E+00    0.10152236E+00    0.19140718E+01
H    -0.10590936E+01   -0.60789954E-01   -0.49675689E+00
           6
Units: angs.;  Time step:           2  ;  Sim. Time [au]:          41.34
C    -0.59705011E-02   -0.60745913E-02    0.32063408E-01
N    -0.56568273E-02    0.49894145E-03    0.12876614E+01
H     0.11088128E+01    0.11411042E+00   -0.44468103E+00
H     0.91680670E+00   -0.89488726E-01    0.18884090E+01
H    -0.82660878E+00    0.10017042E+00    0.19070067E+01
H    -0.10493736E+01   -0.59875688E-01   -0.49520399E+00
           6
Units: angs.;  Time step:           3  ;  Sim. Time [au]:          62.01
C    -0.55389835E-02   -0.61041738E-02    0.30669622E-01
N    -0.62488939E-02    0.68093220E-03    0.12882179E+01
H     0.10930751E+01    0.11275133E+00   -0.44544125E+00
H     0.90795664E+00   -0.88942820E-01    0.18798292E+01
H    -0.81137288E+00    0.97216310E-01    0.18935978E+01
H    -0.10369363E+01   -0.58284812E-01   -0.49434026E+00
           6
Units: angs.;  Time step:           4  ;  Sim. Time [au]:          82.68
C    -0.50202568E-02   -0.60379391E-02    0.28512021E-01
N    -0.72810637E-02    0.89343151E-03    0.12889848E+01
H     0.10785393E+01    0.11007736E+00   -0.44943978E+00
H     0.89643654E+00   -0.87174170E-01    0.18654012E+01
H    -0.78885413E+00    0.91857901E-01    0.18729773E+01
H    -0.10252373E+01   -0.55763172E-01   -0.49560834E+00
           6
Units: angs.;  Time step:           5  ;  Sim. Time [au]:         103.35
C    -0.47364917E-02   -0.58040002E-02    0.25413358E-01
N    -0.89368655E-02    0.11315554E-02    0.12913454E+01
H     0.10732570E+01    0.10498895E+00   -0.46026502E+00
H     0.88480414E+00   -0.83109865E-01    0.18500632E+01
H    -0.75794228E+00    0.83060605E-01    0.18463156E+01
H    -0.10196070E+01   -0.52038239E-01   -0.50188107E+00
           6
Units: angs.;  Time step:           6  ;  Sim. Time [au]:         124.02
C    -0.50821429E-02   -0.52187428E-02    0.21282099E-01
N    -0.11321237E-01    0.13450823E-02    0.12952999E+01
H     0.10865209E+01    0.95330530E-01   -0.48205448E+00
H     0.87669924E+00   -0.75329788E-01    0.18374722E+01
H    -0.71992661E+00    0.70132105E-01    0.18151329E+01
H    -0.10255301E+01   -0.47172266E-01   -0.51660775E+00
           6
Units: angs.;  Time step:           7  ;  Sim. Time [au]:         144.69
C    -0.66152844E-02   -0.40163730E-02    0.18897504E-01
N    -0.14264044E-01    0.13988131E-02    0.12979030E+01
H     0.11263173E+01    0.79975763E-01   -0.51839775E+00
H     0.87577992E+00   -0.63697587E-01    0.18331826E+01
H    -0.67819149E+00    0.54985855E-01    0.17820952E+01
H    -0.10469811E+01   -0.43377130E-01   -0.54371784E+00
           6
Units: angs.;  Time step:           8  ;  Sim. Time [au]:         165.36
C    -0.50821429E-02   -0.52187428E-02    0.21282099E-01
N    -0.11321237E-01    0.13450823E-02    0.12952999E+01
H     0.10865209E+01    0.95330530E-01   -0.48205448E+00
H     0.87669924E+00   -0.75329788E-01    0.18374722E+01
H    -0.71992661E+00    0.70132105E-01    0.18151329E+01
H    -0.10255301E+01   -0.47172266E-01   -0.51660775E+00
