6
Time step: 1
C   0.1251561454E-04 -0.6756603843E-05 -0.9455727156E-04
N  -0.4592576193E-05  0.1071284791E-04  0.4178635879E-04
H  -0.7292658382E-03 -0.2812242659E-04  0.4776632671E-04
H  -0.3915494583E-03 -0.1957417462E-04 -0.3368250282E-03
H   0.4096767127E-03 -0.7753695255E-04 -0.4010586627E-03
H   0.6258242668E-03  0.5687909746E-04  0.1112757425E-03
6
Time step: 2
C   0.3044976826E-04 -0.4962321696E-05 -0.1219713121E-03
N  -0.3400379136E-04  0.1520118306E-04  0.4895623603E-04
H  -0.1252408767E-02 -0.8813391515E-04 -0.8457468323E-05
H  -0.6893414745E-03  0.1835434959E-04 -0.6428122066E-03
H   0.1038566282E-02 -0.1968403821E-03 -0.9359158295E-03
H   0.1012865447E-02  0.1145162520E-03  0.1104702270E-03
6
Time step: 3
C   0.4343801762E-04  0.1675463690E-05 -0.1623426654E-03
N  -0.7424786147E-04  0.1803311516E-04  0.6049323669E-04
H  -0.1383877436E-02 -0.1843607546E-03 -0.2175339814E-03
H  -0.9311703037E-03  0.1058040789E-03 -0.1051741749E-02
H   0.1725858364E-02 -0.3799860138E-03 -0.1555568748E-02
H   0.1103332001E-02  0.1879932466E-03 -0.1848366431E-04
6
Time step: 4
C   0.3668388351E-04  0.1372167519E-04 -0.2402768260E-03
N  -0.1228738246E-03  0.2059910036E-04  0.1429658920E-03
H  -0.9059329883E-03 -0.3548374479E-03 -0.6776311391E-03
H  -0.1058357671E-02  0.2666387657E-03 -0.1360678111E-02
H   0.2442444498E-02 -0.6470922586E-03 -0.2161385672E-02
H   0.7921671313E-03  0.2855462588E-03 -0.3447089900E-03
6
Time step: 5
C  -0.2828966619E-05  0.3744748841E-04 -0.3304975929E-03
N  -0.1846863098E-03  0.2064607616E-04  0.2886799484E-03
H   0.3648569129E-03 -0.6741142590E-03 -0.1490898835E-02
H  -0.9022409176E-03  0.5414359978E-03 -0.1276707015E-02
H   0.3150847181E-02 -0.9931398076E-03 -0.2644213485E-02
H  -0.1338395173E-04  0.3927115488E-03 -0.9599349527E-03
6
Time step: 6
C  -0.8588425706E-04  0.8171685499E-04 -0.2978557657E-03
N  -0.2435184765E-03  0.1221700965E-04  0.2997635947E-03
H   0.2425513543E-02 -0.1143414715E-02 -0.2657390573E-02
H  -0.4125197939E-03  0.8873831986E-03 -0.7716529380E-03
H   0.3645605675E-02 -0.1283366184E-02 -0.2935673469E-02
H  -0.1251338400E-02  0.3959207174E-03 -0.1912462327E-02
6
Time step: 7
C   0.1625382840E-03 -0.1277168170E-03  0.2349353453E-03
N   0.3378010792E-03 -0.3414085320E-05 -0.3189925150E-03
H  -0.4684568585E-02  0.1512701968E-02  0.3886621944E-02
H  -0.4005017720E-03 -0.1141954468E-02  0.1218524467E-03
H  -0.4238372221E-02  0.1463646114E-02  0.3255584183E-02
H   0.2692661778E-02 -0.2651200205E-03  0.2873736129E-02
6
Time step: 8
C   0.1353523324E-03 -0.9261978730E-04  0.2026405640E-03
N   0.2038346740E-03 -0.9386055079E-05 -0.1792055193E-03
H  -0.2864178336E-02  0.1244489643E-02  0.2912442263E-02
H   0.5953053491E-03 -0.9079373848E-03  0.6861328514E-03
H  -0.3466127229E-02  0.1275576226E-02  0.2853611043E-02
H   0.1289733209E-02 -0.3780741803E-03  0.2127965856E-02
