           3
Time step:                   1 Sim. Time [au]          40.00
O     0.98238631E-01    0.11804560E+00    0.22312023E-03
H     0.77750496E+00   -0.48121001E+00    0.55264940E-04
H    -0.73691916E+00   -0.46291995E+00   -0.26951905E-02
           3
Time step:                   2 Sim. Time [au]          80.00
O     0.97472050E-02    0.11120099E+00   -0.20623821E-02
H     0.75220124E+00   -0.46269916E+00    0.10193642E-01
H    -0.79353904E+00   -0.46719842E+00    0.11346228E-01
           3
Time step:                   3 Sim. Time [au]         120.00
O     0.98378876E-02    0.10518489E+00   -0.21350744E-02
H     0.74859372E+00   -0.44765255E+00    0.10646886E-01
H    -0.79660079E+00   -0.47113059E+00    0.11665014E-01
           3
Time step:                   4 Sim. Time [au]         160.00
O     0.90770858E-01    0.10540063E+00    0.43148184E-03
H     0.82375054E+00   -0.50872057E+00    0.14907717E-03
H    -0.68677523E+00   -0.39419972E+00   -0.50194749E-02
           3
Time step:                   5 Sim. Time [au]         200.00
O     0.89018666E-01    0.10016278E+00    0.57992043E-03
H     0.85169466E+00   -0.50599696E+00    0.26348681E-03
H    -0.68515850E+00   -0.38512415E+00   -0.66857958E-02
