           3
Time step:                   1 Sim. Time [au]          40.00
O     0.32697369E-02    0.11690314E+00   -0.21025431E-02
H     0.77765173E+00   -0.49267864E+00    0.10596148E-01
H    -0.75255796E+00   -0.44860657E+00    0.11781753E-01
           3
Time step:                   2 Sim. Time [au]          80.00
O     0.95995356E-01    0.11738754E+00    0.10685956E-02
H     0.79110069E+00   -0.50672887E+00    0.27882860E-03
H    -0.72053056E+00   -0.43870077E+00   -0.12060248E-01
           3
Time step:                   3 Sim. Time [au]         120.00
O     0.93693522E-01    0.11224437E+00    0.52402269E-02
H     0.80484469E+00   -0.51916968E+00    0.12329410E-02
H    -0.70042832E+00   -0.40995710E+00   -0.31687983E-01
           3
Time step:                   4 Sim. Time [au]         160.00
O     0.91239487E-02    0.11004395E+00    0.89992647E-02
H     0.72626313E+00   -0.45753366E+00    0.33619628E-01
H    -0.72658379E+00   -0.45020989E+00    0.33055994E-01
           3
Time step:                   5 Sim. Time [au]         200.00
O     0.17359028E-01    0.10768623E+00    0.12592259E-01
H     0.72240700E+00   -0.44230725E+00    0.44130100E-01
H    -0.72561354E+00   -0.44094614E+00    0.47272915E-01
