           3
Time step:                   1 Sim. Time [au]          40.00
O     0.67009771E-02    0.11669199E+00   -0.17308422E-02
H     0.76275192E+00   -0.49302760E+00    0.86726089E-02
H    -0.75811658E+00   -0.45061975E+00    0.96056139E-02
           3
Time step:                   2 Sim. Time [au]          80.00
O     0.95124363E-01    0.11768226E+00    0.32590283E-03
H     0.79346169E+00   -0.49720730E+00    0.84790230E-04
H    -0.71832023E+00   -0.44275553E+00   -0.37785476E-02
           3
Time step:                   3 Sim. Time [au]         120.00
O     0.92403693E-01    0.11625514E+00    0.37403610E-03
H     0.80988278E+00   -0.50866580E+00    0.10827426E-03
H    -0.69911397E+00   -0.40793393E+00   -0.42909569E-02
           3
Time step:                   4 Sim. Time [au]         160.00
O     0.91239487E-02    0.11004395E+00    0.89992647E-02
H     0.72626313E+00   -0.45753366E+00    0.33619628E-01
H    -0.72658379E+00   -0.45020989E+00    0.33055994E-01
           3
Time step:                   5 Sim. Time [au]         200.00
O     0.15147429E-01    0.10720849E+00    0.15799040E-01
H     0.72855196E+00   -0.44427348E+00    0.43232872E-01
H    -0.72419438E+00   -0.43808184E+00    0.61119303E-01
