           3
Time step:                   1 Sim. Time [au]          40.00
O     0.32351939E-02    0.11597494E+00    0.39135600E-02
H     0.75027629E+00   -0.47148625E+00    0.55620607E-02
H    -0.75392500E+00   -0.46754193E+00    0.13321393E-01
           3
Time step:                   2 Sim. Time [au]          80.00
O     0.50605765E-02    0.11494238E+00    0.53793043E-02
H     0.74141307E+00   -0.46889861E+00    0.15245292E-01
H    -0.74593145E+00   -0.46321568E+00    0.20888324E-01
           3
Time step:                   3 Sim. Time [au]         120.00
O     0.65656141E-02    0.11345833E+00    0.67116288E-02
H     0.73309994E+00   -0.46576799E+00    0.27188522E-01
H    -0.73425854E+00   -0.45750354E+00    0.26170595E-01
           3
Time step:                   4 Sim. Time [au]         160.00
O     0.70981368E-02    0.10242671E+00   -0.19859133E-01
H     0.74340389E+00   -0.44897090E+00    0.73175922E-01
H    -0.74423064E+00   -0.47576266E+00    0.68722202E-01
           3
Time step:                   5 Sim. Time [au]         200.00
O     0.86790119E-02    0.10063536E+00   -0.21561795E-01
H     0.73864908E+00   -0.45007375E+00    0.75941909E-01
H    -0.73119196E+00   -0.46859078E+00    0.83866759E-01
