           3
Time step:                   1 Sim. Time [au]          40.00
O     0.32351939E-02    0.11597494E+00    0.39135600E-02
H     0.75027629E+00   -0.47148625E+00    0.55620607E-02
H    -0.75392500E+00   -0.46754193E+00    0.13321393E-01
           3
Time step:                   2 Sim. Time [au]          80.00
O     0.50605765E-02    0.11494238E+00    0.53793043E-02
H     0.74141307E+00   -0.46889861E+00    0.15245292E-01
H    -0.74593145E+00   -0.46321568E+00    0.20888324E-01
           3
Time step:                   3 Sim. Time [au]         120.00
O     0.65656141E-02    0.11345833E+00    0.67116288E-02
H     0.73309994E+00   -0.46576799E+00    0.27188522E-01
H    -0.73425854E+00   -0.45750354E+00    0.26170595E-01
           3
Time step:                   4 Sim. Time [au]         160.00
O     0.91278166E-02    0.10008846E+00   -0.17114610E-01
H     0.74700044E+00   -0.45250083E+00    0.73216423E-01
H    -0.77672792E+00   -0.45895651E+00    0.72525345E-01
           3
Time step:                   5 Sim. Time [au]         200.00
O     0.71315852E-02    0.97839986E-01   -0.18106230E-01
H     0.76166352E+00   -0.45669236E+00    0.76938718E-01
H    -0.76257355E+00   -0.44046681E+00    0.95367990E-01
