           3
Time step:                   1 Sim. Time [au]          40.00
O     0.98231741E-01    0.11809286E+00    0.32532087E-03
H     0.77782501E+00   -0.48007138E+00    0.80579937E-04
H    -0.73659529E+00   -0.46422578E+00   -0.39293970E-02
           3
Time step:                   2 Sim. Time [au]          80.00
O     0.48082780E-02    0.11286462E+00   -0.38797702E-02
H     0.76449570E+00   -0.46560435E+00    0.17912916E-01
H    -0.75525941E+00   -0.46028125E+00    0.19258591E-01
           3
Time step:                   3 Sim. Time [au]         120.00
O     0.54366021E-02    0.10657183E+00   -0.75129194E-02
H     0.75458363E+00   -0.45597068E+00    0.30513497E-01
H    -0.75425716E+00   -0.46384290E+00    0.30630499E-01
           3
Time step:                   4 Sim. Time [au]         160.00
O     0.91420888E-01    0.10708702E+00    0.12611014E-01
H     0.81709152E+00   -0.52114895E+00    0.97410828E-02
H    -0.69255280E+00   -0.39198022E+00   -0.44548650E-01
           3
Time step:                   5 Sim. Time [au]         200.00
O     0.90014561E-01    0.10511456E+00    0.14782975E-01
H     0.83092824E+00   -0.51769766E+00    0.19624990E-01
H    -0.68889398E+00   -0.38236107E+00   -0.51680580E-01
