           3
Time step:                   1 Sim. Time [au]          40.00
O     0.98237295E-01    0.11810521E+00    0.27324476E-03
H     0.77726779E+00   -0.47977436E+00    0.67683576E-04
H    -0.73714300E+00   -0.46456625E+00   -0.32993510E-02
           3
Time step:                   2 Sim. Time [au]          80.00
O     0.50014750E-02    0.11083881E+00   -0.96050754E-02
H     0.76219779E+00   -0.45885213E+00    0.34666129E-01
H    -0.75493098E+00   -0.47057999E+00    0.32452885E-01
           3
Time step:                   3 Sim. Time [au]         120.00
O     0.61142058E-02    0.10476443E+00   -0.17755375E-01
H     0.75077433E+00   -0.45168612E+00    0.61540492E-01
H    -0.75265040E+00   -0.47649455E+00    0.52791038E-01
           3
Time step:                   4 Sim. Time [au]         160.00
O     0.87390649E-01    0.11006658E+00    0.51689996E-02
H     0.81479101E+00   -0.51954289E+00    0.25120817E-02
H    -0.69077293E+00   -0.39070511E+00   -0.28853780E-01
           3
Time step:                   5 Sim. Time [au]         200.00
O     0.80429635E-01    0.10712533E+00    0.77820204E-02
H     0.83494464E+00   -0.51096210E+00    0.51021001E-02
H    -0.68805900E+00   -0.38506686E+00   -0.31655928E-01
