           3
Time step:                   1 Sim. Time [au]          40.00
O     0.32351939E-02    0.11597494E+00    0.39135600E-02
H     0.75027629E+00   -0.47148625E+00    0.55620607E-02
H    -0.75392500E+00   -0.46754193E+00    0.13321393E-01
           3
Time step:                   2 Sim. Time [au]          80.00
O     0.50605765E-02    0.11494238E+00    0.53793043E-02
H     0.74141307E+00   -0.46889861E+00    0.15245292E-01
H    -0.74593145E+00   -0.46321568E+00    0.20888324E-01
           3
Time step:                   3 Sim. Time [au]         120.00
O     0.65656141E-02    0.11345833E+00    0.67116288E-02
H     0.73309994E+00   -0.46576799E+00    0.27188522E-01
H    -0.73425854E+00   -0.45750354E+00    0.26170595E-01
           3
Time step:                   4 Sim. Time [au]         160.00
O     0.10152110E-01    0.10361434E+00   -0.10672856E-01
H     0.74695613E+00   -0.45051472E+00    0.28251569E-01
H    -0.78598226E+00   -0.45270945E+00    0.18534142E-01
           3
Time step:                   5 Sim. Time [au]         200.00
O     0.83424292E-02    0.10135687E+00   -0.14702690E-01
H     0.76208524E+00   -0.44993185E+00    0.32925769E-01
H    -0.76812003E+00   -0.42965415E+00    0.18214826E-01
