           3
Time step:                   1 Sim. Time [au]          40.00
O     0.30691032E-02    0.11675729E+00   -0.33545388E-02
H     0.77838691E+00   -0.49291969E+00    0.16537886E-01
H    -0.75219473E+00   -0.44999660E+00    0.18109200E-01
           3
Time step:                   2 Sim. Time [au]          80.00
O     0.96743720E-01    0.11719794E+00    0.82047717E-03
H     0.78825544E+00   -0.51677353E+00    0.21458738E-03
H    -0.72338573E+00   -0.43268361E+00   -0.90473110E-02
           3
Time step:                   3 Sim. Time [au]         120.00
O     0.94385558E-01    0.11381521E+00    0.27008474E-02
H     0.80131307E+00   -0.52051944E+00    0.85535043E-03
H    -0.70010271E+00   -0.40935970E+00   -0.22863021E-01
           3
Time step:                   4 Sim. Time [au]         160.00
O     0.91239487E-02    0.11004395E+00    0.89992647E-02
H     0.72626313E+00   -0.45753366E+00    0.33619628E-01
H    -0.72658379E+00   -0.45020989E+00    0.33055994E-01
           3
Time step:                   5 Sim. Time [au]         200.00
O     0.13646333E-01    0.10502345E+00    0.17401372E-01
H     0.72496038E+00   -0.43471027E+00    0.46266992E-01
H    -0.72604864E+00   -0.44497872E+00    0.49111683E-01
