           3
Time step:                   1 Sim. Time [au]          40.00
O     0.69929679E-02    0.11635767E+00   -0.23871246E-02
H     0.76200927E+00   -0.49358037E+00    0.11930212E-01
H    -0.75878350E+00   -0.45379960E+00    0.13188727E-01
           3
Time step:                   2 Sim. Time [au]          80.00
O     0.93639294E-01    0.11761686E+00    0.33711398E-02
H     0.79885438E+00   -0.49880238E+00    0.90958234E-03
H    -0.71268035E+00   -0.44151360E+00   -0.31165625E-01
           3
Time step:                   3 Sim. Time [au]         120.00
O     0.90208158E-01    0.11564416E+00    0.90622534E-02
H     0.81318410E+00   -0.51402030E+00    0.16643159E-02
H    -0.69042952E+00   -0.40948078E+00   -0.40664997E-01
           3
Time step:                   4 Sim. Time [au]         160.00
O     0.91239487E-02    0.11004395E+00    0.89992647E-02
H     0.72626313E+00   -0.45753366E+00    0.33619628E-01
H    -0.72658379E+00   -0.45020989E+00    0.33055994E-01
           3
Time step:                   5 Sim. Time [au]         200.00
O     0.14853061E-01    0.10602672E+00    0.11508735E-01
H     0.72802903E+00   -0.44537063E+00    0.43040868E-01
H    -0.72366085E+00   -0.44047122E+00    0.56549564E-01
