           3
Time step:                   1 Sim. Time [au]          40.00
O     0.32351939E-02    0.11597494E+00    0.39135600E-02
H     0.75027629E+00   -0.47148625E+00    0.55620607E-02
H    -0.75392500E+00   -0.46754193E+00    0.13321393E-01
           3
Time step:                   2 Sim. Time [au]          80.00
O     0.50605765E-02    0.11494238E+00    0.53793043E-02
H     0.74141307E+00   -0.46889861E+00    0.15245292E-01
H    -0.74593145E+00   -0.46321568E+00    0.20888324E-01
           3
Time step:                   3 Sim. Time [au]         120.00
O     0.65656141E-02    0.11345833E+00    0.67116288E-02
H     0.73309994E+00   -0.46576799E+00    0.27188522E-01
H    -0.73425854E+00   -0.45750354E+00    0.26170595E-01
           3
Time step:                   4 Sim. Time [au]         160.00
O     0.78699564E-02    0.10288484E+00   -0.21828817E-02
H     0.75262452E+00   -0.44357663E+00    0.11124990E-01
H    -0.78499899E+00   -0.46392944E+00    0.11650045E-01
           3
Time step:                   5 Sim. Time [au]         200.00
O     0.23113500E-02    0.10099671E+00   -0.22545077E-02
H     0.77568774E+00   -0.44531071E+00    0.11447939E-01
H    -0.76734115E+00   -0.44274670E+00    0.11314810E-01
