           3
Time step:                   1 Sim. Time [au]          40.00
O     0.98191260E-01    0.11807727E+00    0.60162954E-03
H     0.78130252E+00   -0.48044609E+00    0.14911835E-03
H    -0.73316356E+00   -0.46379643E+00   -0.72268249E-02
           3
Time step:                   2 Sim. Time [au]          80.00
O     0.10727493E-01    0.11221276E+00   -0.43502510E-02
H     0.75176033E+00   -0.47142080E+00    0.17437305E-01
H    -0.79563040E+00   -0.46676232E+00    0.17846141E-01
           3
Time step:                   3 Sim. Time [au]         120.00
O     0.10956089E-01    0.10685922E+00   -0.66074721E-02
H     0.74708168E+00   -0.45707859E+00    0.20084702E-01
H    -0.79867890E+00   -0.46574117E+00    0.18395160E-01
           3
Time step:                   4 Sim. Time [au]         160.00
O     0.88635785E-01    0.10912506E+00    0.12515117E-01
H     0.81922098E+00   -0.51773651E+00    0.22323426E-02
H    -0.67546888E+00   -0.39946325E+00   -0.46077516E-01
           3
Time step:                   5 Sim. Time [au]         200.00
O     0.88508626E-01    0.10486117E+00    0.14223710E-01
H     0.82139870E+00   -0.51463776E+00    0.33375553E-02
H    -0.67366735E+00   -0.39858320E+00   -0.58261069E-01
