           3
Time step:                   1 Sim. Time [au]          40.00
O     0.57886842E-02    0.11679689E+00   -0.37638814E-02
H     0.76607632E+00   -0.49285420E+00    0.18502037E-01
H    -0.75641219E+00   -0.44962089E+00    0.20219431E-01
           3
Time step:                   2 Sim. Time [au]          80.00
O     0.92386502E-01    0.11750602E+00    0.24734543E-03
H     0.79766652E+00   -0.49824487E+00    0.64195201E-04
H    -0.71393922E+00   -0.44371925E+00   -0.29843261E-02
           3
Time step:                   3 Sim. Time [au]         120.00
O     0.89699108E-01    0.11363133E+00    0.32661144E-03
H     0.81056448E+00   -0.50865574E+00    0.95671238E-04
H    -0.68478649E+00   -0.41608136E+00   -0.39714923E-02
           3
Time step:                   4 Sim. Time [au]         160.00
O     0.91239487E-02    0.11004395E+00    0.89992647E-02
H     0.72626313E+00   -0.45753366E+00    0.33619628E-01
H    -0.72658379E+00   -0.45020989E+00    0.33055994E-01
           3
Time step:                   5 Sim. Time [au]         200.00
O     0.15457023E-01    0.10600815E+00    0.15527388E-01
H     0.72788730E+00   -0.44210296E+00    0.45548373E-01
H    -0.72664815E+00   -0.44187107E+00    0.64890247E-01
