           3
Time step:                   1 Sim. Time [au]          40.00
O     0.98169491E-01    0.11807614E+00    0.15857137E-03
H     0.78288387E+00   -0.48047401E+00    0.39260710E-04
H    -0.73159462E+00   -0.46376414E+00   -0.19220225E-02
           3
Time step:                   2 Sim. Time [au]          80.00
O     0.94594715E-02    0.11161410E+00   -0.10287581E-01
H     0.75176321E+00   -0.46262337E+00    0.38720590E-01
H    -0.77678400E+00   -0.46443385E+00    0.37029803E-01
           3
Time step:                   3 Sim. Time [au]         120.00
O     0.98204956E-02    0.10308103E+00   -0.15150081E-01
H     0.74612746E+00   -0.45233388E+00    0.54852761E-01
H    -0.78269716E+00   -0.46548679E+00    0.49221145E-01
           3
Time step:                   4 Sim. Time [au]         160.00
O     0.88930214E-01    0.10874085E+00    0.38086475E-03
H     0.82290960E+00   -0.51042428E+00    0.12990348E-03
H    -0.67329603E+00   -0.39849044E+00   -0.47869609E-02
           3
Time step:                   5 Sim. Time [au]         200.00
O     0.89277763E-01    0.10583165E+00    0.41123168E-03
H     0.83812332E+00   -0.50668506E+00    0.15220735E-03
H    -0.67697851E+00   -0.39366895E+00   -0.53810963E-02
