           3
Time step:                   1 Sim. Time [au]          20.00
O    -0.12098461E-02    0.11744817E+00   -0.21714715E-03
H     0.76852257E+00   -0.47476249E+00   -0.43082060E-03
H    -0.75041487E+00   -0.46047880E+00   -0.43082060E-03
           3
Time step:                   2 Sim. Time [au]          40.00
O    -0.19965134E-02    0.11687995E+00   -0.37899911E-03
H     0.77516005E+00   -0.47487979E+00   -0.75112002E-03
H    -0.74538222E+00   -0.45134268E+00   -0.75162036E-03
