3
Units: a.u.;  Time step: 1
O  -0.8961032515E-04 -0.5027186711E-04 -0.1701077132E-04
H   0.8150847961E-03 -0.1292545836E-03 -0.3371282554E-04
H   0.5214455418E-03  0.9271708552E-03 -0.3373528248E-04
3
Units: a.u.;  Time step: 2
O  -0.6179959433E-04 -0.5849738970E-04 -0.1480034192E-04
H   0.4826317497E-03  0.1020400352E-03 -0.2921008676E-04
H   0.4236665470E-03  0.8264319269E-03 -0.2933299393E-04
