           6
 Time step:           1
C  -0.5967650314E-02 -0.1045648908E-02  0.3364884646E-01
N  -0.8986877981E-03 -0.3981438427E-02  0.1284522305E+01
H   0.1074036521E+01  0.9245726993E-01 -0.4334297094E+00
H   0.9094772620E+00 -0.6597987819E-01  0.1896095637E+01
H  -0.8749059713E+00  0.1113629051E+00  0.1931937268E+01
H  -0.1025622239E+01 -0.7055489549E-01 -0.4894363337E+00
           6
 Time step:           2
C  -0.5495604464E-02  0.3825348199E-02  0.2958761379E-01
N   0.3555859950E-02 -0.8160721640E-02  0.1285953927E+01
H   0.1015940593E+01  0.6966628443E-01 -0.4210279757E+00
H   0.8896880636E+00 -0.4275980870E-01  0.1892817783E+01
H  -0.9082358882E+00  0.1198515066E+00  0.1942737726E+01
H  -0.9824308477E+00 -0.7940557063E-01 -0.4805628817E+00
           6
 Time step:           3
C  -0.4826638532E-02  0.8745735507E-02  0.2230925163E-01
N   0.7570136973E-02 -0.1230856244E-01  0.1290969382E+01
H   0.9537667519E+00  0.4608513212E-01 -0.4099616666E+00
H   0.8672786820E+00 -0.1884944328E-01  0.1886442334E+01
H  -0.9338135418E+00  0.1267379329E+00  0.1947194281E+01
H  -0.9365221301E+00 -0.8757963572E-01 -0.4723785898E+00
           6
 Time step:           4
C  -0.4070463449E-02  0.1376193993E-01  0.1220188327E-01
N   0.1114431074E-01 -0.1642589468E-01  0.1299736990E+01
H   0.8927948328E+00  0.2118910096E-01 -0.4021336631E+00
H   0.8421992680E+00  0.6283664976E-02  0.1874218791E+01
H  -0.9521083475E+00  0.1312200647E+00  0.1944439294E+01
H  -0.8913517048E+00 -0.9482293780E-01 -0.4663261162E+00
           6
 Time step:           5
C  -0.3549250065E-02  0.1894584858E-01  0.1208573046E-03
N   0.1409485260E-01 -0.2051760233E-01  0.1311548690E+01
H   0.8410764412E+00 -0.6121377043E-02 -0.4011323788E+00
H   0.8170075522E+00  0.3371242882E-01  0.1861085092E+01
H  -0.9620100572E+00  0.1322633100E+00  0.1935643077E+01
H  -0.8522499889E+00 -0.1008629461E+00 -0.4652782866E+00
           6
 Time step:           6
C  -0.3657452888E-02  0.2448107577E-01 -0.1239843863E-01
N   0.1631682459E-01 -0.2463390693E-01  0.1325261278E+01
H   0.8079041546E+00 -0.3800186568E-01 -0.4110953124E+00
H   0.7953433278E+00  0.6485696513E-01  0.1850698490E+01
H  -0.9648079392E+00  0.1291753512E+00  0.1922325812E+01
H  -0.8247016929E+00 -0.1057619144E+00 -0.4726844150E+00
           6
 Time step:           7
C  -0.4953146099E-02  0.3063341525E-01 -0.2317107080E-01
N   0.1798036171E-01 -0.2891000773E-01  0.1338950694E+01
H   0.8012644159E+00 -0.7557869865E-01 -0.4356120477E+00
H   0.7808646869E+00  0.9985362438E-01  0.1848613287E+01
H  -0.9638863773E+00  0.1238696425E+00  0.1907153655E+01
H  -0.8126813055E+00 -0.1117317193E+00 -0.4924739488E+00
           6
 Time step:           8
C  -0.7482196964E-02  0.3751313161E-01 -0.3157680161E-01
N   0.1902817624E-01 -0.3343264406E-01  0.1351941025E+01
H   0.8211238092E+00 -0.1177659214E+00 -0.4745877971E+00
H   0.7760578525E+00  0.1374999334E+00  0.1857173781E+01
H  -0.9600464517E+00  0.1189137949E+00  0.1890412304E+01
H  -0.8164979532E+00 -0.1213320149E+00 -0.5253698224E+00
           6
 Time step:           9
C  -0.1086288256E-01  0.4509417229E-01 -0.3780948458E-01
N   0.1936553458E-01 -0.3823030795E-01  0.1364169770E+01
H   0.8607049426E+00 -0.1635288806E+00 -0.5249956582E+00
H   0.7810708033E+00  0.1773135730E+00  0.1875578057E+01
H  -0.9526808340E+00  0.1153060756E+00  0.1871575328E+01
H  -0.8333616352E+00 -0.1354070482E+00 -0.5698921928E+00
           6
 Time step:          10
C  -0.1466451143E-01  0.5321062965E-01 -0.4244279993E-01
N   0.1897795668E-01 -0.4326110002E-01  0.1375851530E+01
H   0.9113924161E+00 -0.2110460189E+00 -0.5828434507E+00
H   0.7937109799E+00  0.2183785395E+00  0.1900940892E+01
H  -0.9407546514E+00  0.1134777757E+00  0.1850199220E+01
H  -0.8584300315E+00 -0.1538989890E+00 -0.6228507910E+00
           6
 Time step:          11
C  -0.1852054927E-01  0.6154603576E-01 -0.4664839413E-01
N   0.1791774580E-01 -0.4842511656E-01  0.1387570634E+01
H   0.9655872668E+00 -0.2575886823E+00 -0.6436882113E+00
H   0.8105596775E+00  0.2591163247E+00  0.1929430476E+01
H  -0.9235238456E+00  0.1135816075E+00  0.1826394926E+01
H  -0.8865238341E+00 -0.1757280127E+00 -0.6791265011E+00
           6
 Time step:          12
C  -0.2202886531E-01  0.6967625651E-01 -0.5213237585E-01
N   0.1637342217E-01 -0.5358723989E-01  0.1400162101E+01
H   0.1016752423E+01 -0.3008097251E+00 -0.7022199756E+00
H   0.8279484301E+00  0.2985881783E+00  0.1957349890E+01
H  -0.9018681169E+00  0.1144146799E+00  0.1801386957E+01
H  -0.9139691093E+00 -0.1979233514E+00 -0.7328307304E+00
           6
 Time step:          13
C  -0.2502592242E-01  0.7736366263E-01 -0.5958811662E-01
N   0.1475507865E-01 -0.5865120246E-01  0.1413812554E+01
H   0.1061362524E+01 -0.3399611450E+00 -0.7553727119E+00
H   0.8427458923E+00  0.3362406461E+00  0.1982264939E+01
H  -0.8789833455E+00  0.1150455528E+00  0.1777139499E+01
H  -0.9385605091E+00 -0.2182543181E+00 -0.7808907827E+00
           6
 Time step:          14
C  -0.2748770569E-01  0.8448049429E-01 -0.6916718677E-01
N   0.1351235873E-01 -0.6356731092E-01  0.1428400585E+01
H   0.1097970381E+01 -0.3746606128E+00 -0.8018411604E+00
H   0.8527965102E+00  0.3713036738E+00  0.2002695177E+01
H  -0.8591800879E+00  0.1155597490E+00  0.1755766650E+01
H  -0.9589190594E+00 -0.2355868969E+00 -0.8217524394E+00
           6
 Time step:          15
C  -0.2942345811E-01  0.9094077082E-01 -0.8084940698E-01
N   0.1306952785E-01 -0.6831841011E-01  0.1443728142E+01
H   0.1126012880E+01 -0.4046311089E+00 -0.8410654305E+00
H   0.8567620614E+00  0.4030393173E+00  0.2017789407E+01
H  -0.8471427182E+00  0.1165541414E+00  0.1739217442E+01
H  -0.9742444329E+00 -0.2492709034E+00 -0.8545617869E+00
           6
 Time step:          16
C  -0.3084813900E-01  0.9667883401E-01 -0.9454815390E-01
N   0.1374616274E-01 -0.7289897097E-01  0.1459609032E+01
H   0.1145315682E+01 -0.4296478492E+00 -0.8728333104E+00
H   0.8539288297E+00  0.4308511579E+00  0.2027138975E+01
H  -0.8466818743E+00  0.1186990202E+00  0.1728795993E+01
H  -0.9841004735E+00 -0.2588994619E+00 -0.8788713773E+00
           6
 Time step:          17
C  -0.3177615520E-01  0.1016409671E+00 -0.1101498316E+00
N   0.1565815819E-01 -0.7728849341E-01  0.1475916348E+01
H   0.1155884611E+01 -0.4495115195E+00 -0.8971116973E+00
H   0.8440761833E+00  0.4543224563E+00  0.2030659213E+01
H  -0.8592396132E+00  0.1223015304E+00  0.1724766418E+01
H  -0.9882691027E+00 -0.2642070874E+00 -0.8944838313E+00
           6
 Time step:          18
C  -0.3222147171E-01  0.1057829515E+00 -0.1275268215E+00
N   0.1867333170E-01 -0.8143864985E-01  0.1492584433E+01
H   0.1157835067E+01 -0.4640361130E+00 -0.9139859555E+00
H   0.8274120122E+00  0.4732452598E+00  0.2028533403E+01
H  -0.8832171056E+00  0.1270796405E+00  0.1726390238E+01
H  -0.9866692512E+00 -0.2650344594E+00 -0.9013669146E+00
           6
 Time step:          19
C  -0.3220503172E-01  0.1090746826E+00 -0.1465262095E+00
N   0.2246319427E-01 -0.8529082420E-01  0.1509565471E+01
H   0.1151448281E+01 -0.4730639313E+00 -0.9237044950E+00
H   0.8045641852E+00  0.4876652827E+00  0.2021222784E+01
H  -0.9146981887E+00  0.1323581146E+00  0.1732397874E+01
H  -0.9793120010E+00 -0.2613655587E+00 -0.8996214995E+00
           6
 Time step:          20
C  -0.3181113436E-01  0.1115426415E+00 -0.1668536191E+00
N   0.2660484750E-01 -0.8883146204E-01  0.1526721056E+01
H   0.1137653618E+01 -0.4766947931E+00 -0.9270969718E+00
H   0.7765772688E+00  0.4979653278E+00  0.2009587906E+01
H  -0.9488100513E+00  0.1377781260E+00  0.1741525782E+01
H  -0.9661630897E+00 -0.2536284305E+00 -0.8895993591E+00
