           6
Time step:                   1 Sim. Time [au]          20.67
C    -0.59676503E-02   -0.10456489E-02    0.33648846E-01
N    -0.89868780E-03   -0.39814384E-02    0.12845223E+01
H     0.10740365E+01    0.92457270E-01   -0.43342971E+00
H     0.90947726E+00   -0.65979878E-01    0.18960956E+01
H    -0.87490597E+00    0.11136291E+00    0.19319373E+01
H    -0.10256222E+01   -0.70554895E-01   -0.48943633E+00
           6
Time step:                   2 Sim. Time [au]          41.34
C    -0.54956045E-02    0.38253482E-02    0.29587614E-01
N     0.35558600E-02   -0.81607216E-02    0.12859539E+01
H     0.10159406E+01    0.69666284E-01   -0.42102798E+00
H     0.88968806E+00   -0.42759809E-01    0.18928178E+01
H    -0.90823589E+00    0.11985151E+00    0.19427377E+01
H    -0.98243085E+00   -0.79405571E-01   -0.48056288E+00
           6
Time step:                   3 Sim. Time [au]          62.01
C    -0.48266385E-02    0.87457355E-02    0.22309252E-01
N     0.75701370E-02   -0.12308562E-01    0.12909694E+01
H     0.95376675E+00    0.46085132E-01   -0.40996167E+00
H     0.86727868E+00   -0.18849443E-01    0.18864423E+01
H    -0.93381354E+00    0.12673793E+00    0.19471943E+01
H    -0.93652213E+00   -0.87579636E-01   -0.47237859E+00
           6
Time step:                   4 Sim. Time [au]          82.68
C    -0.40704634E-02    0.13761940E-01    0.12201883E-01
N     0.11144311E-01   -0.16425895E-01    0.12997370E+01
H     0.89279483E+00    0.21189101E-01   -0.40213366E+00
H     0.84219927E+00    0.62836650E-02    0.18742188E+01
H    -0.95210835E+00    0.13122006E+00    0.19444393E+01
H    -0.89135170E+00   -0.94822938E-01   -0.46632612E+00
           6
Time step:                   5 Sim. Time [au]         103.35
C    -0.35492501E-02    0.18945849E-01    0.12085730E-03
N     0.14094853E-01   -0.20517602E-01    0.13115487E+01
H     0.84107644E+00   -0.61213770E-02   -0.40113238E+00
H     0.81700755E+00    0.33712429E-01    0.18610851E+01
H    -0.96201006E+00    0.13226331E+00    0.19356431E+01
H    -0.85224999E+00   -0.10086295E+00   -0.46527829E+00
           6
Time step:                   6 Sim. Time [au]         124.02
C    -0.36574529E-02    0.24481076E-01   -0.12398439E-01
N     0.16316825E-01   -0.24633907E-01    0.13252613E+01
H     0.80790415E+00   -0.38001866E-01   -0.41109531E+00
H     0.79534333E+00    0.64856965E-01    0.18506985E+01
H    -0.96480794E+00    0.12917535E+00    0.19223258E+01
H    -0.82470169E+00   -0.10576191E+00   -0.47268441E+00
           6
Time step:                   7 Sim. Time [au]         144.69
C    -0.49531461E-02    0.30633415E-01   -0.23171071E-01
N     0.17980362E-01   -0.28910008E-01    0.13389507E+01
H     0.80126442E+00   -0.75578699E-01   -0.43561205E+00
H     0.78086469E+00    0.99853624E-01    0.18486133E+01
H    -0.96388638E+00    0.12386964E+00    0.19071537E+01
H    -0.81268131E+00   -0.11173172E+00   -0.49247395E+00
           6
Time step:                   8 Sim. Time [au]         165.36
C    -0.74821970E-02    0.37513132E-01   -0.31576802E-01
N     0.19028176E-01   -0.33432644E-01    0.13519410E+01
H     0.82112381E+00   -0.11776592E+00   -0.47458780E+00
H     0.77605785E+00    0.13749993E+00    0.18571738E+01
H    -0.96004645E+00    0.11891379E+00    0.18904123E+01
H    -0.81649795E+00   -0.12133201E+00   -0.52536982E+00
           6
Time step:                   9 Sim. Time [au]         186.03
C    -0.10862883E-01    0.45094172E-01   -0.37809485E-01
N     0.19365535E-01   -0.38230308E-01    0.13641698E+01
H     0.86070494E+00   -0.16352888E+00   -0.52499566E+00
H     0.78107080E+00    0.17731357E+00    0.18755781E+01
H    -0.95268083E+00    0.11530608E+00    0.18715753E+01
H    -0.83336164E+00   -0.13540705E+00   -0.56989219E+00
           6
Time step:                  10 Sim. Time [au]         206.70
C    -0.14664511E-01    0.53210630E-01   -0.42442800E-01
N     0.18977957E-01   -0.43261100E-01    0.13758515E+01
H     0.91139242E+00   -0.21104602E+00   -0.58284345E+00
H     0.79371098E+00    0.21837854E+00    0.19009409E+01
H    -0.94075465E+00    0.11347778E+00    0.18501992E+01
H    -0.85843003E+00   -0.15389899E+00   -0.62285079E+00
           6
Time step:                  11 Sim. Time [au]         227.37
C    -0.18520549E-01    0.61546036E-01   -0.46648394E-01
N     0.17917746E-01   -0.48425117E-01    0.13875706E+01
H     0.96558727E+00   -0.25758868E+00   -0.64368821E+00
H     0.81055968E+00    0.25911632E+00    0.19294305E+01
H    -0.92352385E+00    0.11358161E+00    0.18263949E+01
H    -0.88652383E+00   -0.17572801E+00   -0.67912650E+00
           6
Time step:                  12 Sim. Time [au]         248.04
C    -0.22028865E-01    0.69676257E-01   -0.52132376E-01
N     0.16373422E-01   -0.53587240E-01    0.14001621E+01
H     0.10167524E+01   -0.30080973E+00   -0.70221998E+00
H     0.82794843E+00    0.29858818E+00    0.19573499E+01
H    -0.90186812E+00    0.11441468E+00    0.18013870E+01
H    -0.91396911E+00   -0.19792335E+00   -0.73283073E+00
           6
Time step:                  13 Sim. Time [au]         268.71
C    -0.25025922E-01    0.77363663E-01   -0.59588117E-01
N     0.14755079E-01   -0.58651202E-01    0.14138126E+01
H     0.10613625E+01   -0.33996115E+00   -0.75537271E+00
H     0.84274589E+00    0.33624065E+00    0.19822649E+01
H    -0.87898335E+00    0.11504555E+00    0.17771395E+01
H    -0.93856051E+00   -0.21825432E+00   -0.78089078E+00
           6
Time step:                  14 Sim. Time [au]         289.38
C    -0.27487706E-01    0.84480494E-01   -0.69167187E-01
N     0.13512359E-01   -0.63567311E-01    0.14284006E+01
H     0.10979704E+01   -0.37466061E+00   -0.80184116E+00
H     0.85279651E+00    0.37130367E+00    0.20026952E+01
H    -0.85918009E+00    0.11555975E+00    0.17557666E+01
H    -0.95891906E+00   -0.23558690E+00   -0.82175244E+00
           6
Time step:                  15 Sim. Time [au]         310.05
C    -0.29423458E-01    0.90940771E-01   -0.80849407E-01
N     0.13069528E-01   -0.68318410E-01    0.14437281E+01
H     0.11260129E+01   -0.40463111E+00   -0.84106543E+00
H     0.85676206E+00    0.40303932E+00    0.20177894E+01
H    -0.84714272E+00    0.11655414E+00    0.17392174E+01
H    -0.97424443E+00   -0.24927090E+00   -0.85456179E+00
           6
Time step:                  16 Sim. Time [au]         330.72
C    -0.30848139E-01    0.96678834E-01   -0.94548154E-01
N     0.13746163E-01   -0.72898971E-01    0.14596090E+01
H     0.11453157E+01   -0.42964785E+00   -0.87283331E+00
H     0.85392883E+00    0.43085116E+00    0.20271390E+01
H    -0.84668187E+00    0.11869902E+00    0.17287960E+01
H    -0.98410047E+00   -0.25889946E+00   -0.87887138E+00
           6
Time step:                  17 Sim. Time [au]         351.38
C    -0.31776155E-01    0.10164097E+00   -0.11014983E+00
N     0.15658158E-01   -0.77288493E-01    0.14759163E+01
H     0.11558846E+01   -0.44951152E+00   -0.89711170E+00
H     0.84407618E+00    0.45432246E+00    0.20306592E+01
H    -0.85923961E+00    0.12230153E+00    0.17247664E+01
H    -0.98826910E+00   -0.26420709E+00   -0.89448383E+00
           6
Time step:                  18 Sim. Time [au]         372.05
C    -0.32221472E-01    0.10578295E+00   -0.12752682E+00
N     0.18673332E-01   -0.81438650E-01    0.14925844E+01
H     0.11578351E+01   -0.46403611E+00   -0.91398596E+00
H     0.82741201E+00    0.47324526E+00    0.20285334E+01
H    -0.88321711E+00    0.12707964E+00    0.17263902E+01
H    -0.98666925E+00   -0.26503446E+00   -0.90136691E+00
           6
Time step:                  19 Sim. Time [au]         392.72
C    -0.32205032E-01    0.10907468E+00   -0.14652621E+00
N     0.22463194E-01   -0.85290824E-01    0.15095655E+01
H     0.11514483E+01   -0.47306393E+00   -0.92370450E+00
H     0.80456419E+00    0.48766528E+00    0.20212228E+01
H    -0.91469819E+00    0.13235811E+00    0.17323979E+01
H    -0.97931200E+00   -0.26136556E+00   -0.89962150E+00
           6
Time step:                  20 Sim. Time [au]         413.39
C    -0.31811134E-01    0.11154264E+00   -0.16685362E+00
N     0.26604847E-01   -0.88831462E-01    0.15267211E+01
H     0.11376536E+01   -0.47669479E+00   -0.92709697E+00
H     0.77657727E+00    0.49796533E+00    0.20095879E+01
H    -0.94881005E+00    0.13777813E+00    0.17415258E+01
H    -0.96616309E+00   -0.25362843E+00   -0.88959936E+00
