           3
 Time step:           1
O   0.4143807392E-04 -0.3142310512E-04  0.5180889152E-04
H  -0.3606362445E-03  0.7587968515E-03 -0.7697628820E-03
H  -0.3369140804E-03 -0.3472154464E-03 -0.9869950342E-04
           3
 Time step:           2
O   0.4046602933E-04 -0.4565924833E-04  0.4849281934E-04
H  -0.3932884897E-03  0.8136947183E-03 -0.7807753251E-03
H  -0.2675675302E-03 -0.2324606216E-03 -0.6372130204E-04
