           3
 Time step:           1
O  -0.2170941766E-03  0.1171224289E+00 -0.2050848310E-02
H   0.7882220634E+00 -0.4960827454E+00  0.2573777959E-01
H  -0.7336556333E+00 -0.4337415276E+00 -0.4853463691E-02
           3
 Time step:           2
O   0.1140452861E+00  0.1438362091E+00 -0.5973617414E-02
H   0.9692193758E+00 -0.6073913173E+00  0.3734697820E-01
H  -0.8695975650E+00 -0.5398680840E+00 -0.1539995171E-01
           3
 Time step:           3
O   0.1183396386E+00  0.1431038693E+00 -0.1123401548E-01
H   0.9605041754E+00 -0.5990710460E+00  0.4685972384E-01
H  -0.8698939207E+00 -0.5403489646E+00 -0.3367273129E-01
           3
 Time step:           4
O   0.1240863606E+00  0.1365074277E+00 -0.1516817641E-01
H   0.9335689513E+00 -0.5698282778E+00  0.5637647526E-01
H  -0.8242251922E+00 -0.5005015197E+00 -0.4962423386E-01
           3
 Time step:           5
O   0.1265084696E+00  0.1320327646E+00 -0.1833459192E-01
H   0.9059873941E+00 -0.5471929287E+00  0.7030478712E-01
H  -0.7913789151E+00 -0.4764576177E+00 -0.6230598341E-01
           3
 Time step:           6
O   0.1264578071E+00  0.1286713752E+00 -0.2178144851E-01
H   0.8809440791E+00 -0.5230401160E+00  0.9588221480E-01
H  -0.7617543738E+00 -0.4502678146E+00 -0.7563996910E-01
           3
 Time step:           7
O   0.1257270662E+00  0.1241097886E+00 -0.2918562375E-01
H   0.8627117606E+00 -0.5033262962E+00  0.1073174994E+00
H  -0.7332262242E+00 -0.4275213170E+00 -0.1073072551E+00
           3
 Time step:           8
O  -0.1243375440E-01  0.1872515788E+00 -0.3287622519E-01
H   0.1240021621E+01 -0.7048667024E+00  0.9349258016E-01
H  -0.1274324000E+01 -0.7053612680E+00 -0.7638778163E-01
           3
 Time step:           9
O  -0.2242659720E-01  0.1836190738E+00 -0.3392370541E-01
H   0.1195843975E+01 -0.6706193484E+00  0.9043268539E-01
H  -0.1229073484E+01 -0.6706703747E+00 -0.7967708434E-01
           3
 Time step:          10
O  -0.2446096599E-01  0.1729184970E+00 -0.3410429077E-01
H   0.1081556680E+01 -0.5859290284E+00  0.6112879949E-01
H  -0.1122457889E+01 -0.5923826929E+00 -0.7566934765E-01
