           3
 Time step:           1
O   0.3235193917E-02  0.1159749355E+00  0.3913559981E-02
H   0.7502762937E+00 -0.4714862475E+00  0.5562060687E-02
H  -0.7539249999E+00 -0.4675419254E+00  0.1332139268E-01
           3
 Time step:           2
O   0.5060576478E-02  0.1149423786E+00  0.5379304259E-02
H   0.7414130750E+00 -0.4688986083E+00  0.1524529250E-01
H  -0.7459314480E+00 -0.4632156837E+00  0.2088832416E-01
           3
 Time step:           3
O   0.6565614062E-02  0.1134583268E+00  0.6711628805E-02
H   0.7330999398E+00 -0.4657679863E+00  0.2718852169E-01
H  -0.7342585442E+00 -0.4575035402E+00  0.2617059487E-01
           3
 Time step:           4
O   0.9123948725E-02  0.1100439453E+00  0.8999264657E-02
H   0.7262631349E+00 -0.4575336608E+00  0.3361962751E-01
H  -0.7265837864E+00 -0.4502098878E+00  0.3305599421E-01
           3
 Time step:           5
O   0.1392111594E-01  0.1068113857E+00  0.1304271426E-01
H   0.7281814816E+00 -0.4438435906E+00  0.3545053719E-01
H  -0.7258015764E+00 -0.4358291083E+00  0.5628324239E-01
           3
 Time step:           6
O   0.4542676891E-02  0.7741325198E-01  0.4317743009E-02
H   0.5105576713E+00 -0.3400016392E+00  0.4936378341E-01
H  -0.5213351517E+00 -0.3156933926E+00 -0.1692079334E-01
           3
 Time step:           7
O   0.4941565674E-02  0.7783389646E-01  0.4660400819E-02
H   0.5186948108E+00 -0.3476864338E+00  0.5059663974E-01
H  -0.5321853889E+00 -0.3146879815E+00 -0.1370896546E-01
           3
 Time step:           8
O   0.7032379773E-02  0.9169759311E-01  0.4220748609E-02
H   0.6456602606E+00 -0.4517845176E+00  0.7363043681E-01
H  -0.6675006566E+00 -0.4132477896E+00 -0.2014276123E-01
           3
 Time step:           9
O   0.1110362803E-01  0.9589310300E-01  0.3186486043E-02
H   0.6827210153E+00 -0.4818349028E+00  0.8035919987E-01
H  -0.7056674593E+00 -0.4407955531E+00 -0.3716019505E-01
           3
 Time step:          10
O   0.1239609877E-01  0.9889637118E-01  0.3266603248E-03
H   0.7050427395E+00 -0.4996843316E+00  0.8661084482E-01
H  -0.7268821267E+00 -0.4562540569E+00 -0.4137897411E-01
