           3
Time step:                   1 Sim. Time [au]          40.00
O     0.98237295E-01    0.11810521E+00    0.27324476E-03
H     0.77726779E+00   -0.47977436E+00    0.67683576E-04
H    -0.73714300E+00   -0.46456625E+00   -0.32993510E-02
           3
Time step:                   2 Sim. Time [au]          80.00
O     0.50014750E-02    0.11083881E+00   -0.96050754E-02
H     0.76219779E+00   -0.45885213E+00    0.34666129E-01
H    -0.75493098E+00   -0.47057999E+00    0.32452885E-01
           3
Time step:                   3 Sim. Time [au]         120.00
O     0.61142058E-02    0.10476443E+00   -0.17755375E-01
H     0.75077433E+00   -0.45168612E+00    0.61540492E-01
H    -0.75265040E+00   -0.47649455E+00    0.52791038E-01
           3
Time step:                   4 Sim. Time [au]         160.00
O     0.87390649E-01    0.11006658E+00    0.51689996E-02
H     0.81479101E+00   -0.51954289E+00    0.25120817E-02
H    -0.69077293E+00   -0.39070511E+00   -0.28853780E-01
           3
Time step:                   5 Sim. Time [au]         200.00
O     0.80429635E-01    0.10712533E+00    0.77820204E-02
H     0.83494464E+00   -0.51096210E+00    0.51021001E-02
H    -0.68805900E+00   -0.38506686E+00   -0.31655928E-01
           3
Time step:                   6 Sim. Time [au]         240.00
O     0.14070706E-01    0.10479403E+00    0.19663829E-01
H     0.76826740E+00   -0.43795169E+00    0.68940131E-01
H    -0.73371646E+00   -0.44564004E+00    0.53369334E-01
           3
Time step:                   7 Sim. Time [au]         280.00
O     0.14474305E-01    0.10502751E+00    0.21011260E-01
H     0.77797290E+00   -0.44101394E+00    0.11104499E+00
H    -0.74574294E+00   -0.45178356E+00    0.61145270E-01
           3
Time step:                   8 Sim. Time [au]         320.00
O     0.21965140E-01    0.88036477E-01   -0.34059142E-01
H     0.76836371E+00   -0.49482349E+00    0.84347387E-01
H    -0.72145557E+00   -0.41509477E+00    0.10986291E+00
           3
Time step:                   9 Sim. Time [au]         360.00
O     0.26988875E-01    0.85542342E-01   -0.36082940E-01
H     0.77342896E+00   -0.50034616E+00    0.89759629E-01
H    -0.74469223E+00   -0.40631369E+00    0.11477180E+00
           3
Time step:                  10 Sim. Time [au]         400.00
O     0.82936564E-01    0.97948008E-01    0.14389339E-01
H     0.80914923E+00   -0.45806477E+00    0.71028894E-01
H    -0.70739725E+00   -0.43825002E+00   -0.59036176E-01
