           3
Units: angs.;  Time step:           1  ;  Sim. Time [au]:          40.00	
O     0.48028038E-02    0.11657539E+00   -0.32626858E-02
H     0.77061972E+00   -0.49321992E+00    0.16285747E-01
H    -0.75490550E+00   -0.45174457E+00    0.17987526E-01
           3
Units: angs.;  Time step:           2  ;  Sim. Time [au]:          80.00	
O     0.92812777E-01    0.11747823E+00    0.41025860E-02
H     0.80508928E+00   -0.50388597E+00    0.11035319E-02
H    -0.70645428E+00   -0.43740805E+00   -0.39201150E-01
           3
Units: angs.;  Time step:           3  ;  Sim. Time [au]:         120.00	
O     0.90247888E-01    0.11488687E+00    0.92785229E-02
H     0.81821470E+00   -0.51627311E+00    0.33987931E-02
H    -0.67458738E+00   -0.40818592E+00   -0.58373176E-01
           3
Units: angs.;  Time step:           4  ;  Sim. Time [au]:         160.00	
O     0.91239487E-02    0.11004395E+00    0.89992647E-02
H     0.72626313E+00   -0.45753366E+00    0.33619628E-01
H    -0.72658379E+00   -0.45020989E+00    0.33055994E-01
           3
Units: angs.;  Time step:           5  ;  Sim. Time [au]:         200.00	
O     0.15667263E-01    0.10694113E+00    0.11996166E-01
H     0.72708633E+00   -0.45063070E+00    0.42579813E-01
H    -0.72401449E+00   -0.44514575E+00    0.49650660E-01
           3
Units: angs.;  Time step:           6  ;  Sim. Time [au]:         240.00	
O     0.55500923E-03    0.96689912E-01   -0.20693634E-01
H     0.75462300E+00   -0.44956487E+00    0.69081529E-01
H    -0.75449220E+00   -0.43153008E+00    0.72946928E-01
