           3
Time step:                   1 Sim. Time [au]          40.00
O     0.98169491E-01    0.11807614E+00    0.15857137E-03
H     0.78288387E+00   -0.48047401E+00    0.39260710E-04
H    -0.73159462E+00   -0.46376414E+00   -0.19220225E-02
           3
Time step:                   2 Sim. Time [au]          80.00
O     0.94594715E-02    0.11161410E+00   -0.10287581E-01
H     0.75176321E+00   -0.46262337E+00    0.38720590E-01
H    -0.77678400E+00   -0.46443385E+00    0.37029803E-01
           3
Time step:                   3 Sim. Time [au]         120.00
O     0.98204956E-02    0.10308103E+00   -0.15150081E-01
H     0.74612746E+00   -0.45233388E+00    0.54852761E-01
H    -0.78269716E+00   -0.46548679E+00    0.49221145E-01
           3
Time step:                   4 Sim. Time [au]         160.00
O     0.88930214E-01    0.10874085E+00    0.38086475E-03
H     0.82290960E+00   -0.51042428E+00    0.12990348E-03
H    -0.67329603E+00   -0.39849044E+00   -0.47869609E-02
           3
Time step:                   5 Sim. Time [au]         200.00
O     0.89277763E-01    0.10583165E+00    0.41123168E-03
H     0.83812332E+00   -0.50668506E+00    0.15220735E-03
H    -0.67697851E+00   -0.39366895E+00   -0.53810963E-02
           3
Time step:                   6 Sim. Time [au]         240.00
O     0.17304413E-01    0.10579600E+00    0.18134273E-01
H     0.77018579E+00   -0.44668589E+00    0.77539658E-01
H    -0.73454808E+00   -0.43899781E+00    0.75698595E-01
           3
Time step:                   7 Sim. Time [au]         280.00
O     0.19310287E-01    0.10592767E+00    0.20359930E-01
H     0.78571052E+00   -0.45036046E+00    0.93669832E-01
H    -0.74119747E+00   -0.43832555E+00    0.79876982E-01
           3
Time step:                   8 Sim. Time [au]         320.00
O    -0.14987857E-02    0.85550559E-01   -0.27672402E-01
H     0.77086485E+00   -0.49216287E+00    0.78376253E-01
H    -0.73485343E+00   -0.39922277E+00    0.11282102E+00
           3
Time step:                   9 Sim. Time [au]         360.00
O    -0.35250822E-03    0.83166825E-01   -0.28560515E-01
H     0.75803551E+00   -0.49493148E+00    0.76924806E-01
H    -0.75071908E+00   -0.38620250E+00    0.13831226E+00
           3
Time step:                  10 Sim. Time [au]         400.00
O     0.29575883E-02    0.79004933E-01   -0.29700282E-01
H     0.74207444E+00   -0.49377288E+00    0.75127028E-01
H    -0.77222597E+00   -0.37722484E+00    0.15039952E+00
