           3
Time step:                   1 Sim. Time [au]          40.00
O     0.98191260E-01    0.11807727E+00    0.60162954E-03
H     0.78130252E+00   -0.48044609E+00    0.14911835E-03
H    -0.73316356E+00   -0.46379643E+00   -0.72268249E-02
           3
Time step:                   2 Sim. Time [au]          80.00
O     0.10727493E-01    0.11221276E+00   -0.43502510E-02
H     0.75176033E+00   -0.47142080E+00    0.17437305E-01
H    -0.79563040E+00   -0.46676232E+00    0.17846141E-01
           3
Time step:                   3 Sim. Time [au]         120.00
O     0.10956089E-01    0.10685922E+00   -0.66074721E-02
H     0.74708168E+00   -0.45707859E+00    0.20084702E-01
H    -0.79867890E+00   -0.46574117E+00    0.18395160E-01
           3
Time step:                   4 Sim. Time [au]         160.00
O     0.88635785E-01    0.10912506E+00    0.12515117E-01
H     0.81922098E+00   -0.51773651E+00    0.22323426E-02
H    -0.67546888E+00   -0.39946325E+00   -0.46077516E-01
           3
Time step:                   5 Sim. Time [au]         200.00
O     0.88508626E-01    0.10486117E+00    0.14223710E-01
H     0.82139870E+00   -0.51463776E+00    0.33375553E-02
H    -0.67366735E+00   -0.39858320E+00   -0.58261069E-01
           3
Time step:                   6 Sim. Time [au]         240.00
O     0.15398409E-01    0.10609181E+00    0.12506076E-01
H     0.77626180E+00   -0.44996316E+00    0.84010810E-01
H    -0.73485831E+00   -0.43568198E+00    0.64227881E-01
           3
Time step:                   7 Sim. Time [au]         280.00
O     0.17267017E-01    0.10637442E+00    0.12897077E-01
H     0.79567577E+00   -0.45156357E+00    0.10489730E+00
H    -0.76183181E+00   -0.43489928E+00    0.66700420E-01
           3
Time step:                   8 Sim. Time [au]         320.00
O    -0.30790427E-02    0.88524161E-01   -0.19787810E-01
H     0.77900402E+00   -0.47994566E+00    0.37165510E-01
H    -0.76778015E+00   -0.44285485E+00    0.14954467E-01
           3
Time step:                   9 Sim. Time [au]         360.00
O    -0.42328411E-02    0.85090682E-01   -0.24646131E-01
H     0.76665684E+00   -0.50190283E+00    0.37437365E-01
H    -0.77973206E+00   -0.47104521E+00    0.13834783E-01
           3
Time step:                  10 Sim. Time [au]         400.00
O     0.86133598E-01    0.10186533E+00    0.36806777E-01
H     0.86438056E+00   -0.46032232E+00    0.61833610E-01
H    -0.65763848E+00   -0.42492294E+00   -0.13176304E+00
