           3
Time step:                   1 Sim. Time [au]          40.00
O     0.41747928E-02    0.11724906E+00   -0.34903039E-02
H     0.77267833E+00   -0.49210686E+00    0.17403353E-01
H    -0.75368198E+00   -0.44531126E+00    0.19208128E-01
           3
Time step:                   2 Sim. Time [au]          80.00
O     0.11519262E+00    0.14423541E+00    0.15940221E-02
H     0.98010890E+00   -0.59951394E+00    0.41696428E-03
H    -0.87144537E+00   -0.55177079E+00   -0.17910687E-01
           3
Time step:                   3 Sim. Time [au]         120.00
O     0.11807975E+00    0.14317589E+00   -0.24395158E-02
H     0.97236741E+00   -0.59322495E+00    0.11116034E-01
H    -0.87897703E+00   -0.54374017E+00   -0.91098159E-02
           3
Time step:                   4 Sim. Time [au]         160.00
O     0.12031718E+00    0.13657713E+00   -0.35417646E-02
H     0.94416070E+00   -0.56351437E+00    0.12887107E-01
H    -0.82771357E+00   -0.51057923E+00   -0.74357260E-02
           3
Time step:                   5 Sim. Time [au]         200.00
O     0.12650849E+00    0.13230441E+00   -0.38989747E-02
H     0.91760299E+00   -0.54168508E+00    0.13264290E-01
H    -0.79600433E+00   -0.48621511E+00   -0.63948795E-02
           3
Time step:                   6 Sim. Time [au]         240.00
O     0.13172607E+00    0.12889356E+00   -0.42157686E-02
H     0.89199320E+00   -0.51762125E+00    0.13133096E-01
H    -0.76583906E+00   -0.46002088E+00   -0.46143026E-02
           3
Time step:                   7 Sim. Time [au]         280.00
O     0.13268692E+00    0.12430568E+00   -0.56637096E-02
H     0.87365780E+00   -0.49918506E+00    0.10921547E-01
H    -0.73621468E+00   -0.43726107E+00    0.42857260E-02
           3
Time step:                   8 Sim. Time [au]         320.00
O     0.35058603E-01    0.18219939E+00    0.26271036E-01
H     0.12559359E+01   -0.73800917E+00    0.66109358E-01
H    -0.12394391E+01   -0.69641940E+00    0.68174854E-01
           3
Time step:                   9 Sim. Time [au]         360.00
O     0.31769452E-01    0.17866047E+00    0.21967359E-01
H     0.12144605E+01   -0.70483876E+00    0.49774906E-01
H    -0.11936754E+01   -0.66245068E+00    0.84220189E-01
           3
Time step:                  10 Sim. Time [au]         400.00
O     0.23810484E-01    0.16783887E+00    0.20197810E-01
H     0.11103049E+01   -0.62461933E+00    0.24284240E-01
H    -0.10816453E+01   -0.58323307E+00    0.89149532E-01
