           3
 Time step:           1
O   0.4174792797E-02  0.1172490553E+00 -0.3490303918E-02
H   0.7726783322E+00 -0.4921068629E+00  0.1740335295E-01
H  -0.7536819797E+00 -0.4453112626E+00  0.1920812785E-01
           3
 Time step:           2
O   0.1151926178E+00  0.1442354128E+00  0.1594022098E-02
H   0.9801089012E+00 -0.5995139386E+00  0.4169642818E-03
H  -0.8714453716E+00 -0.5517707924E+00 -0.1791068734E-01
           3
 Time step:           3
O   0.1180797541E+00  0.1431758942E+00 -0.2439515753E-02
H   0.9723674102E+00 -0.5932249530E+00  0.1111603404E-01
H  -0.8789770336E+00 -0.5437401682E+00 -0.9109815923E-02
           3
 Time step:           4
O   0.1203171805E+00  0.1365771281E+00 -0.3541764607E-02
H   0.9441607023E+00 -0.5635143650E+00  0.1288710723E-01
H  -0.8277135689E+00 -0.5105792258E+00 -0.7435726035E-02
           3
 Time step:           5
O   0.1265084879E+00  0.1323044079E+00 -0.3898974688E-02
H   0.9176029867E+00 -0.5416850786E+00  0.1326429020E-01
H  -0.7960043262E+00 -0.4862151079E+00 -0.6394879451E-02
           3
 Time step:           6
O   0.1317260708E+00  0.1288935641E+00 -0.4215768589E-02
H   0.8919931997E+00 -0.5176212451E+00  0.1313309614E-01
H  -0.7658390567E+00 -0.4600208839E+00 -0.4614302595E-02
           3
 Time step:           7
O   0.1326869231E+00  0.1243056818E+00 -0.5663709568E-02
H   0.8736577974E+00 -0.4991850551E+00  0.1092154717E-01
H  -0.7362146790E+00 -0.4372610716E+00  0.4285725971E-02
           3
 Time step:           8
O   0.3505860347E-01  0.1821993871E+00  0.2627103582E-01
H   0.1255935893E+01 -0.7380091689E+00  0.6610935756E-01
H  -0.1239439115E+01 -0.6964193975E+00  0.6817485388E-01
           3
 Time step:           9
O   0.3176945219E-01  0.1786604656E+00  0.2196735863E-01
H   0.1214460508E+01 -0.7048387587E+00  0.4977490571E-01
H  -0.1193675385E+01 -0.6624506804E+00  0.8422018905E-01
           3
 Time step:          10
O   0.2381048416E-01  0.1678388726E+00  0.2019780992E-01
H   0.1110304868E+01 -0.6246193268E+00  0.2428423971E-01
H  -0.1081645257E+01 -0.5832330695E+00  0.8914953215E-01
