           3
Time step:                   1 Sim. Time [au]          40.00
O     0.98231741E-01    0.11809286E+00    0.32532087E-03
H     0.77782501E+00   -0.48007138E+00    0.80579937E-04
H    -0.73659529E+00   -0.46422578E+00   -0.39293970E-02
           3
Time step:                   2 Sim. Time [au]          80.00
O     0.48082780E-02    0.11286462E+00   -0.38797702E-02
H     0.76449570E+00   -0.46560435E+00    0.17912916E-01
H    -0.75525941E+00   -0.46028125E+00    0.19258591E-01
           3
Time step:                   3 Sim. Time [au]         120.00
O     0.54366021E-02    0.10657183E+00   -0.75129194E-02
H     0.75458363E+00   -0.45597068E+00    0.30513497E-01
H    -0.75425716E+00   -0.46384290E+00    0.30630499E-01
           3
Time step:                   4 Sim. Time [au]         160.00
O     0.91420888E-01    0.10708702E+00    0.12611014E-01
H     0.81709152E+00   -0.52114895E+00    0.97410828E-02
H    -0.69255280E+00   -0.39198022E+00   -0.44548650E-01
           3
Time step:                   5 Sim. Time [au]         200.00
O     0.90014561E-01    0.10511456E+00    0.14782975E-01
H     0.83092824E+00   -0.51769766E+00    0.19624990E-01
H    -0.68889398E+00   -0.38236107E+00   -0.51680580E-01
           3
Time step:                   6 Sim. Time [au]         240.00
O     0.18479069E-01    0.10747443E+00    0.15018211E-01
H     0.76108011E+00   -0.44778069E+00    0.68663058E-01
H    -0.73283806E+00   -0.43558773E+00    0.51861016E-01
           3
Time step:                   7 Sim. Time [au]         280.00
O     0.20137017E-01    0.10780267E+00    0.17369825E-01
H     0.78178873E+00   -0.45238410E+00    0.86444212E-01
H    -0.75130243E+00   -0.43405309E+00    0.55946587E-01
           3
Time step:                   8 Sim. Time [au]         320.00
O     0.94680946E-01    0.10156071E+00    0.18454792E-01
H     0.86283795E+00   -0.46908105E+00    0.42538450E-01
H    -0.72234738E+00   -0.35099444E+00   -0.78114629E-01
           3
Time step:                   9 Sim. Time [au]         360.00
O     0.98258708E-01    0.10124803E+00    0.19632535E-01
H     0.85783781E+00   -0.46124199E+00    0.54287244E-01
H    -0.72526007E+00   -0.36028003E+00   -0.91217696E-01
           3
Time step:                  10 Sim. Time [au]         400.00
O     0.51689672E-02    0.87983794E-01   -0.33005160E-01
H     0.76574319E+00   -0.49329697E+00    0.11434817E+00
H    -0.76754514E+00   -0.47093014E+00    0.12926394E+00
