           3
Time step:                   1 Sim. Time [au]          40.00
O     0.32697369E-02    0.11690314E+00   -0.21025431E-02
H     0.77765173E+00   -0.49267864E+00    0.10596148E-01
H    -0.75255796E+00   -0.44860657E+00    0.11781753E-01
           3
Time step:                   2 Sim. Time [au]          80.00
O     0.11756982E+00    0.14376979E+00    0.13087570E-02
H     0.96889651E+00   -0.62061359E+00    0.34149390E-03
H    -0.88246611E+00   -0.53729652E+00   -0.14770727E-01
           3
Time step:                   3 Sim. Time [au]         120.00
O     0.11795415E+00    0.13649938E+00   -0.35833177E-02
H     0.96036065E+00   -0.60775928E+00    0.12733423E-01
H    -0.87619138E+00   -0.56007408E+00   -0.50326420E-02
           3
Time step:                   4 Sim. Time [au]         160.00
O     0.11707593E+00    0.13213488E+00   -0.10177699E-01
H     0.92931196E+00   -0.58304371E+00    0.51196565E-01
H    -0.84082810E+00   -0.54680418E+00    0.35756297E-01
           3
Time step:                   5 Sim. Time [au]         200.00
O     0.10839743E+00    0.12694707E+00   -0.11978725E-01
H     0.90515861E+00   -0.55520734E+00    0.58326320E-01
H    -0.80860122E+00   -0.51343024E+00    0.45211392E-01
           3
Time step:                   6 Sim. Time [au]         240.00
O     0.10447242E+00    0.12207030E+00   -0.13639444E-01
H     0.87800772E+00   -0.53166090E+00    0.60950374E-01
H    -0.77794909E+00   -0.48739248E+00    0.48587406E-01
           3
Time step:                   7 Sim. Time [au]         280.00
O     0.10181447E+00    0.11829587E+00   -0.17247597E-01
H     0.85628943E+00   -0.51240197E+00    0.62863919E-01
H    -0.74955666E+00   -0.46318051E+00    0.50778978E-01
           3
Time step:                   8 Sim. Time [au]         320.00
O     0.25500740E-01    0.18208086E+00    0.25476138E-01
H     0.12548764E+01   -0.73757491E+00    0.70102475E-01
H    -0.12405714E+01   -0.69740311E+00    0.64379821E-01
           3
Time step:                   9 Sim. Time [au]         360.00
O     0.19550640E-01    0.17631154E+00    0.23125618E-01
H     0.12119589E+01   -0.70440966E+00    0.78494046E-01
H    -0.11961308E+01   -0.66284335E+00    0.76820329E-01
           3
Time step:                  10 Sim. Time [au]         400.00
O     0.13848157E-01    0.16543993E+00    0.22958227E-01
H     0.11046106E+01   -0.62150852E+00    0.83800146E-01
H    -0.10896531E+01   -0.58632461E+00    0.87483303E-01
