           3
Time step:                   1 Sim. Time [au]          40.00
O     0.98231741E-01    0.11809286E+00    0.32532087E-03
H     0.77782501E+00   -0.48007138E+00    0.80579937E-04
H    -0.73659529E+00   -0.46422578E+00   -0.39293970E-02
           3
Time step:                   2 Sim. Time [au]          80.00
O     0.39259426E-02    0.92153577E-01   -0.31678191E-02
H     0.62420813E+00   -0.38016436E+00    0.14625834E-01
H    -0.61666673E+00   -0.37581807E+00    0.15724573E-01
           3
Time step:                   3 Sim. Time [au]         120.00
O     0.28873136E-02    0.88068887E-01   -0.53978191E-04
H     0.63071349E+00   -0.38452406E+00    0.15496699E-01
H    -0.60570189E+00   -0.37008135E+00   -0.84033008E-02
           3
Time step:                   4 Sim. Time [au]         160.00
O     0.34995060E-02    0.95184060E-01    0.45078372E-02
H     0.68790392E+00   -0.42889795E+00    0.22348517E-01
H    -0.67522315E+00   -0.42405692E+00   -0.20788636E-01
           3
Time step:                   5 Sim. Time [au]         200.00
O     0.39555937E-02    0.99420562E-01    0.73398613E-02
H     0.71689779E+00   -0.45269978E+00    0.40341152E-01
H    -0.70656121E+00   -0.44964220E+00   -0.27784090E-01
           3
Time step:                   6 Sim. Time [au]         240.00
O     0.20624918E-01    0.15119875E+00    0.20067170E-01
H     0.10614926E+01   -0.63104882E+00    0.51560918E-01
H    -0.10533571E+01   -0.59867751E+00    0.87142954E-01
           3
Time step:                   7 Sim. Time [au]         280.00
O     0.20826537E-01    0.15409447E+00    0.20383611E-01
H     0.10766850E+01   -0.64408507E+00    0.56874213E-01
H    -0.10676504E+01   -0.61110347E+00    0.72589877E-01
           3
Time step:                   8 Sim. Time [au]         320.00
O     0.80398407E-01    0.93799779E-01   -0.20008916E-01
H     0.68373658E+00   -0.40495695E+00    0.55838482E-01
H    -0.59177218E+00   -0.36123041E+00    0.46601428E-01
           3
Time step:                   9 Sim. Time [au]         360.00
O     0.79585831E-01    0.91542316E-01   -0.19286095E-01
H     0.67058451E+00   -0.39275412E+00    0.54945291E-01
H    -0.57280449E+00   -0.34585481E+00    0.42036005E-01
           3
Time step:                  10 Sim. Time [au]         400.00
O     0.75913136E-01    0.97612740E-01   -0.20083533E-01
H     0.73771930E+00   -0.44821732E+00    0.64174342E-01
H    -0.63458278E+00   -0.38948215E+00    0.46775723E-01
