           3
Units: angs.;  Time step:           1  ;  Sim. Time [au]:          40.00	
O     0.32351939E-02    0.11597494E+00    0.39135600E-02
H     0.75027629E+00   -0.47148625E+00    0.55620607E-02
H    -0.75392500E+00   -0.46754193E+00    0.13321393E-01
           3
Units: angs.;  Time step:           2  ;  Sim. Time [au]:          80.00	
O     0.50605765E-02    0.11494238E+00    0.53793043E-02
H     0.74141307E+00   -0.46889861E+00    0.15245292E-01
H    -0.74593145E+00   -0.46321568E+00    0.20888324E-01
           3
Units: angs.;  Time step:           3  ;  Sim. Time [au]:         120.00	
O     0.65656141E-02    0.11345833E+00    0.67116288E-02
H     0.73309994E+00   -0.46576799E+00    0.27188522E-01
H    -0.73425854E+00   -0.45750354E+00    0.26170595E-01
           3
Units: angs.;  Time step:           4  ;  Sim. Time [au]:         160.00	
O     0.71511233E-02    0.10426190E+00   -0.14042232E-01
H     0.74665020E+00   -0.44853752E+00    0.63253434E-01
H    -0.77860546E+00   -0.45850293E+00    0.46566368E-01
           3
Units: angs.;  Time step:           5  ;  Sim. Time [au]:         200.00	
O     0.31973798E-02    0.10224910E+00   -0.16913011E-01
H     0.74600782E+00   -0.44660031E+00    0.67195815E-01
H    -0.76605869E+00   -0.43809533E+00    0.59313818E-01
           3
Units: angs.;  Time step:           6  ;  Sim. Time [au]:         240.00	
O     0.94493824E-01    0.10247255E+00    0.13219671E-01
H     0.84785176E+00   -0.47957139E+00    0.29826120E-01
H    -0.69966345E+00   -0.42247280E+00   -0.87843822E-01
