           3
 Time step:           1
O   0.9753156235E-01  0.1176730906E+00 -0.1674510633E-02
H   0.7689441918E+00 -0.4859895561E+00  0.2101480903E-01
H  -0.7312995277E+00 -0.4542531323E+00 -0.3962836510E-02
           3
 Time step:           2
O   0.1257520255E-02  0.9519846752E-01 -0.4799387540E-02
H   0.6231803351E+00 -0.3969440189E+00  0.2995036618E-01
H  -0.5965919169E+00 -0.3556527118E+00 -0.1266193649E-01
           3
 Time step:           3
O  -0.8270436381E-03  0.9472969158E-01 -0.9075392876E-02
H   0.6273832014E+00 -0.3995673124E+00  0.3789606742E-01
H  -0.5938279098E+00 -0.3492258178E+00 -0.2751209758E-01
           3
 Time step:           4
O   0.1090530939E-02  0.1032392511E+00 -0.1230266455E-01
H   0.6781523777E+00 -0.4394590566E+00  0.5326708528E-01
H  -0.6768495211E+00 -0.4111738048E+00 -0.4378101718E-01
           3
 Time step:           5
O   0.4540003124E-02  0.1067704983E+00 -0.1489731588E-01
H   0.7038698141E+00 -0.4618747720E+00  0.6782209278E-01
H  -0.7108063102E+00 -0.4372442576E+00 -0.5480898551E-01
           3
 Time step:           6
O  -0.1264681775E-01  0.1555698562E+00 -0.1776013321E-01
H   0.1053275167E+01 -0.6053370472E+00  0.7902524567E-01
H  -0.1081924771E+01 -0.6060645870E+00 -0.6140569979E-01
           3
 Time step:           7
O  -0.1090876459E-01  0.1583448542E+00 -0.2296431073E-01
H   0.1066282590E+01 -0.6168269822E+00  0.8104827793E-01
H  -0.1096118734E+01 -0.6186280182E+00 -0.6387327112E-01
           3
 Time step:           8
O   0.1008761902E+00  0.9808670430E-01 -0.2697830697E-01
H   0.6906339042E+00 -0.3976990425E+00  0.8814726533E-01
H  -0.5784173319E+00 -0.3325040087E+00 -0.9811330038E-01
           3
 Time step:           9
O   0.1014738907E+00  0.9578770124E-01 -0.2800449548E-01
H   0.6787680689E+00 -0.3870103484E+00  0.8069644418E-01
H  -0.5595434954E+00 -0.3187529991E+00 -0.9533553608E-01
           3
 Time step:          10
O   0.1030181686E+00  0.1022448154E+00 -0.2932416910E-01
H   0.7480675255E+00 -0.4462323938E+00  0.9798026162E-01
H  -0.6246372958E+00 -0.3634710867E+00 -0.1066619023E+00
