           3
Time step:                   1 Sim. Time [au]          40.00
O     0.32351939E-02    0.11597494E+00    0.39135600E-02
H     0.75027629E+00   -0.47148625E+00    0.55620607E-02
H    -0.75392500E+00   -0.46754193E+00    0.13321393E-01
           3
Time step:                   2 Sim. Time [au]          80.00
O     0.50605765E-02    0.11494238E+00    0.53793043E-02
H     0.74141307E+00   -0.46889861E+00    0.15245292E-01
H    -0.74593145E+00   -0.46321568E+00    0.20888324E-01
           3
Time step:                   3 Sim. Time [au]         120.00
O     0.65656141E-02    0.11345833E+00    0.67116288E-02
H     0.73309994E+00   -0.46576799E+00    0.27188522E-01
H    -0.73425854E+00   -0.45750354E+00    0.26170595E-01
           3
Time step:                   4 Sim. Time [au]         160.00
O     0.91239487E-02    0.11004395E+00    0.89992647E-02
H     0.72626313E+00   -0.45753366E+00    0.33619628E-01
H    -0.72658379E+00   -0.45020989E+00    0.33055994E-01
           3
Time step:                   5 Sim. Time [au]         200.00
O     0.13921116E-01    0.10681139E+00    0.13042714E-01
H     0.72818148E+00   -0.44384359E+00    0.35450537E-01
H    -0.72580158E+00   -0.43582911E+00    0.56283242E-01
           3
Time step:                   6 Sim. Time [au]         240.00
O     0.45426769E-02    0.77413252E-01    0.43177430E-02
H     0.51055767E+00   -0.34000164E+00    0.49363783E-01
H    -0.52133515E+00   -0.31569339E+00   -0.16920793E-01
           3
Time step:                   7 Sim. Time [au]         280.00
O     0.49415657E-02    0.77833896E-01    0.46604008E-02
H     0.51869481E+00   -0.34768643E+00    0.50596640E-01
H    -0.53218539E+00   -0.31468798E+00   -0.13708965E-01
           3
Time step:                   8 Sim. Time [au]         320.00
O     0.70323798E-02    0.91697593E-01    0.42207486E-02
H     0.64566026E+00   -0.45178452E+00    0.73630437E-01
H    -0.66750066E+00   -0.41324779E+00   -0.20142761E-01
           3
Time step:                   9 Sim. Time [au]         360.00
O     0.11103628E-01    0.95893103E-01    0.31864860E-02
H     0.68272102E+00   -0.48183490E+00    0.80359200E-01
H    -0.70566746E+00   -0.44079555E+00   -0.37160195E-01
           3
Time step:                  10 Sim. Time [au]         400.00
O     0.12396099E-01    0.98896371E-01    0.32666032E-03
H     0.70504274E+00   -0.49968433E+00    0.86610845E-01
H    -0.72688213E+00   -0.45625406E+00   -0.41378974E-01
