           3
Time step:                   1 Sim. Time [au]          40.00
O     0.98238631E-01    0.11804560E+00    0.22312023E-03
H     0.77750496E+00   -0.48121001E+00    0.55264940E-04
H    -0.73691916E+00   -0.46291995E+00   -0.26951905E-02
           3
Time step:                   2 Sim. Time [au]          80.00
O     0.97472050E-02    0.11120099E+00   -0.20623821E-02
H     0.75220124E+00   -0.46269916E+00    0.10193642E-01
H    -0.79353904E+00   -0.46719842E+00    0.11346228E-01
           3
Time step:                   3 Sim. Time [au]         120.00
O     0.98378876E-02    0.10518489E+00   -0.21350744E-02
H     0.74859372E+00   -0.44765255E+00    0.10646886E-01
H    -0.79660079E+00   -0.47113059E+00    0.11665014E-01
           3
Time step:                   4 Sim. Time [au]         160.00
O     0.90770858E-01    0.10540063E+00    0.43148184E-03
H     0.82375054E+00   -0.50872057E+00    0.14907717E-03
H    -0.68677523E+00   -0.39419972E+00   -0.50194749E-02
           3
Time step:                   5 Sim. Time [au]         200.00
O     0.89018666E-01    0.10016278E+00    0.57992043E-03
H     0.85169466E+00   -0.50599696E+00    0.26348681E-03
H    -0.68515850E+00   -0.38512415E+00   -0.66857958E-02
           3
Time step:                   6 Sim. Time [au]         240.00
O     0.16048676E-01    0.10633475E+00    0.18715749E-01
H     0.77727841E+00   -0.44529286E+00    0.64017240E-01
H    -0.73690125E+00   -0.42968055E+00    0.74098049E-01
           3
Time step:                   7 Sim. Time [au]         280.00
O     0.17263526E-01    0.10583655E+00    0.21053779E-01
H     0.79208743E+00   -0.44642115E+00    0.86521061E-01
H    -0.75505630E+00   -0.42729763E+00    0.83920659E-01
           3
Time step:                   8 Sim. Time [au]         320.00
O     0.80289112E-01    0.86933729E-01    0.34905565E-02
H     0.85479357E+00   -0.43183777E+00    0.35890401E-02
H    -0.74856772E+00   -0.31913303E+00   -0.46004866E-01
           3
Time step:                   9 Sim. Time [au]         360.00
O     0.78171415E-01    0.80624243E-01    0.38211877E-02
H     0.84427463E+00   -0.43371563E+00    0.43562695E-02
H    -0.76090120E+00   -0.31362018E+00   -0.55632504E-01
           3
Time step:                  10 Sim. Time [au]         400.00
O     0.98283347E-02    0.92417639E-01   -0.96896170E-02
H     0.74317080E+00   -0.47463918E+00    0.97083379E-02
H    -0.78460572E+00   -0.46768243E+00   -0.27670953E-01
