           3
Time step:                   1 Sim. Time [au]          40.00
O     0.32351939E-02    0.11597494E+00    0.39135600E-02
H     0.75027629E+00   -0.47148625E+00    0.55620607E-02
H    -0.75392500E+00   -0.46754193E+00    0.13321393E-01
           3
Time step:                   2 Sim. Time [au]          80.00
O     0.50605765E-02    0.11494238E+00    0.53793043E-02
H     0.74141307E+00   -0.46889861E+00    0.15245292E-01
H    -0.74593145E+00   -0.46321568E+00    0.20888324E-01
           3
Time step:                   3 Sim. Time [au]         120.00
O     0.65656141E-02    0.11345833E+00    0.67116288E-02
H     0.73309994E+00   -0.46576799E+00    0.27188522E-01
H    -0.73425854E+00   -0.45750354E+00    0.26170595E-01
           3
Time step:                   4 Sim. Time [au]         160.00
O     0.91239487E-02    0.11004395E+00    0.89992647E-02
H     0.72626313E+00   -0.45753366E+00    0.33619628E-01
H    -0.72658379E+00   -0.45020989E+00    0.33055994E-01
           3
Time step:                   5 Sim. Time [au]         200.00
O     0.13921116E-01    0.10681139E+00    0.13042714E-01
H     0.72818148E+00   -0.44384359E+00    0.35450537E-01
H    -0.72580158E+00   -0.43582911E+00    0.56283242E-01
           3
Time step:                   6 Sim. Time [au]         240.00
O     0.30029885E-02    0.72527418E-01    0.63164616E-02
H     0.52083820E+00   -0.33141845E+00    0.40187751E-01
H    -0.51425649E+00   -0.32982749E+00   -0.25779835E-01
           3
Time step:                   7 Sim. Time [au]         280.00
O     0.34156911E-02    0.72971832E-01    0.66635115E-02
H     0.52887278E+00   -0.33911887E+00    0.41386344E-01
H    -0.52522343E+00   -0.32918372E+00   -0.22603454E-01
           3
Time step:                   8 Sim. Time [au]         320.00
O     0.49141888E-02    0.86833337E-01    0.69016831E-02
H     0.65842320E+00   -0.44020378E+00    0.66629316E-01
H    -0.65905568E+00   -0.43070702E+00   -0.35356278E-01
           3
Time step:                   9 Sim. Time [au]         360.00
O     0.89898279E-02    0.91031795E-01    0.71977044E-02
H     0.69594463E+00   -0.46950714E+00    0.73751677E-01
H    -0.69670061E+00   -0.45904574E+00   -0.46951396E-01
           3
Time step:                  10 Sim. Time [au]         400.00
O     0.11037614E-01    0.94043088E-01    0.80650566E-02
H     0.71850440E+00   -0.48711086E+00    0.79512376E-01
H    -0.71764214E+00   -0.47487241E+00   -0.49017046E-01
