           3
 Time step:           1
O  -0.5561198942E-03  0.1173629103E+00 -0.1184057824E-02
H   0.7533874341E+00 -0.4713163527E+00  0.1485971397E-01
H  -0.7456456967E+00 -0.4635838978E+00 -0.2802148569E-02
           3
 Time step:           2
O  -0.9948851002E-03  0.1168942648E+00 -0.3412226993E-02
H   0.7447558024E+00 -0.4676203229E+00  0.2130811789E-01
H  -0.7371533790E+00 -0.4598789950E+00 -0.8935683358E-02
           3
 Time step:           3
O  -0.1599043532E-02  0.1163657678E+00 -0.6444132588E-02
H   0.7334605042E+00 -0.4618090215E+00  0.2686648532E-01
H  -0.7324252279E+00 -0.4560914783E+00 -0.1949647608E-01
           3
 Time step:           4
O  -0.3405969947E-02  0.1155169014E+00 -0.8722817374E-02
H   0.7267135665E+00 -0.4534911139E+00  0.3397323224E-01
H  -0.7320313654E+00 -0.4501387624E+00 -0.2921544403E-01
           3
 Time step:           5
O  -0.6502839650E-02  0.1129982862E+00 -0.1056742076E-01
H   0.7261631243E+00 -0.4406121798E+00  0.4462659580E-01
H  -0.7528066361E+00 -0.4387055035E+00 -0.3701833933E-01
           3
 Time step:           6
O   0.7486845803E-02  0.7780553558E-01 -0.1246226882E-01
H   0.5107999625E+00 -0.3372134452E+00  0.5328166109E-01
H  -0.5176740418E+00 -0.3209618552E+00 -0.4367185045E-01
           3
 Time step:           7
O   0.5722872899E-02  0.7593285743E-01 -0.1628516789E-01
H   0.5224499496E+00 -0.3321694983E+00  0.5700614193E-01
H  -0.5256781566E+00 -0.3140022365E+00 -0.4988471859E-01
           3
 Time step:           8
O   0.4527388409E-02  0.8985456243E-01 -0.1895886832E-01
H   0.6554928529E+00 -0.4362947612E+00  0.7886780572E-01
H  -0.6650182889E+00 -0.4165219497E+00 -0.6607989873E-01
           3
 Time step:           9
O   0.1354056361E-02  0.9395100089E-01 -0.1989475512E-01
H   0.6925143282E+00 -0.4652852982E+00  0.8869118602E-01
H  -0.7035982829E+00 -0.4451191941E+00 -0.7204448363E-01
           3
 Time step:          10
O  -0.2151251663E-02  0.9695261703E-01 -0.2084564782E-01
H   0.7132505445E+00 -0.4816402855E+00  0.9653566468E-01
H  -0.7264871761E+00 -0.4624827540E+00 -0.7784954832E-01
