           3
Time step:                   1 Sim. Time [au]          40.00
O     0.32697369E-02    0.11690314E+00   -0.21025431E-02
H     0.77765173E+00   -0.49267864E+00    0.10596148E-01
H    -0.75255796E+00   -0.44860657E+00    0.11781753E-01
           3
Time step:                   2 Sim. Time [au]          80.00
O     0.95995356E-01    0.11738754E+00    0.10685956E-02
H     0.79110069E+00   -0.50672887E+00    0.27882860E-03
H    -0.72053056E+00   -0.43870077E+00   -0.12060248E-01
           3
Time step:                   3 Sim. Time [au]         120.00
O     0.93693522E-01    0.11224437E+00    0.52402269E-02
H     0.80484469E+00   -0.51916968E+00    0.12329410E-02
H    -0.70042832E+00   -0.40995710E+00   -0.31687983E-01
           3
Time step:                   4 Sim. Time [au]         160.00
O     0.91239487E-02    0.11004395E+00    0.89992647E-02
H     0.72626313E+00   -0.45753366E+00    0.33619628E-01
H    -0.72658379E+00   -0.45020989E+00    0.33055994E-01
           3
Time step:                   5 Sim. Time [au]         200.00
O     0.17359028E-01    0.10768623E+00    0.12592259E-01
H     0.72240700E+00   -0.44230725E+00    0.44130100E-01
H    -0.72561354E+00   -0.44094614E+00    0.47272915E-01
           3
Time step:                   6 Sim. Time [au]         240.00
O     0.25195911E-02    0.96581452E-01   -0.18030208E-01
H     0.73308943E+00   -0.46068413E+00    0.55597651E-01
H    -0.72841643E+00   -0.44396958E+00    0.78212743E-01
           3
Time step:                   7 Sim. Time [au]         280.00
O    -0.19560270E-02    0.90688575E-01   -0.20356694E-01
H     0.73668644E+00   -0.48571209E+00    0.59310241E-01
H    -0.70014193E+00   -0.42499861E+00    0.84431781E-01
           3
Time step:                   8 Sim. Time [au]         320.00
O    -0.35529672E-02    0.88834344E-01   -0.28449846E-01
H     0.74151957E+00   -0.49590521E+00    0.65458704E-01
H    -0.68832121E+00   -0.42684228E+00    0.93251800E-01
           3
Time step:                   9 Sim. Time [au]         360.00
O    -0.28566139E-02    0.88758315E-01   -0.31853545E-01
H     0.74912334E+00   -0.49841652E+00    0.10192590E+00
H    -0.75415219E+00   -0.45670379E+00    0.10858188E+00
           3
Time step:                  10 Sim. Time [au]         400.00
O     0.99933560E-01    0.10076696E+00    0.27590334E-01
H     0.84958469E+00   -0.45294549E+00    0.58441307E-01
H    -0.72259537E+00   -0.37946727E+00   -0.10673398E+00
