           3
Units: angs.;  Time step:           1  ;  Sim. Time [au]:          40.00	
O     0.98117339E-01    0.11812737E+00    0.49235654E-03
H     0.78717074E+00   -0.47923954E+00    0.12201750E-03
H    -0.72735887E+00   -0.46518001E+00   -0.59209467E-02
           3
Units: angs.;  Time step:           2  ;  Sim. Time [au]:          80.00	
O     0.73791303E-02    0.11241494E+00   -0.74280523E-02
H     0.75817548E+00   -0.46812310E+00    0.32316830E-01
H    -0.77466734E+00   -0.46526306E+00    0.33423674E-01
           3
Units: angs.;  Time step:           3  ;  Sim. Time [au]:         120.00	
O     0.77639960E-02    0.10718096E+00   -0.11032656E-01
H     0.75100634E+00   -0.45488134E+00    0.48448158E-01
H    -0.78336054E+00   -0.46636210E+00    0.40417837E-01
           3
Units: angs.;  Time step:           4  ;  Sim. Time [au]:         160.00	
O     0.89518449E-01    0.10753818E+00    0.10738868E-01
H     0.82654526E+00   -0.51619627E+00    0.15138527E-01
H    -0.66167645E+00   -0.39745827E+00   -0.62600621E-01
           3
Units: angs.;  Time step:           5  ;  Sim. Time [au]:         200.00	
O     0.90179753E-01    0.10384198E+00    0.11304479E-01
H     0.83500343E+00   -0.51004963E+00    0.27052857E-01
H    -0.66539198E+00   -0.39967530E+00   -0.67279306E-01
           3
Units: angs.;  Time step:           6  ;  Sim. Time [au]:         240.00	
O     0.19192085E-01    0.10690255E+00    0.13945302E-01
H     0.77441818E+00   -0.45578867E+00    0.61830469E-01
H    -0.73058827E+00   -0.44478941E+00    0.61246277E-01
