           3
Time step:                   1 Sim. Time [au]          40.00
O     0.32351939E-02    0.11597494E+00    0.39135600E-02
H     0.75027629E+00   -0.47148625E+00    0.55620607E-02
H    -0.75392500E+00   -0.46754193E+00    0.13321393E-01
           3
Time step:                   2 Sim. Time [au]          80.00
O     0.50605765E-02    0.11494238E+00    0.53793043E-02
H     0.74141307E+00   -0.46889861E+00    0.15245292E-01
H    -0.74593145E+00   -0.46321568E+00    0.20888324E-01
           3
Time step:                   3 Sim. Time [au]         120.00
O     0.65656141E-02    0.11345833E+00    0.67116288E-02
H     0.73309994E+00   -0.46576799E+00    0.27188522E-01
H    -0.73425854E+00   -0.45750354E+00    0.26170595E-01
           3
Time step:                   4 Sim. Time [au]         160.00
O     0.70981368E-02    0.10242671E+00   -0.19859133E-01
H     0.74340389E+00   -0.44897090E+00    0.73175922E-01
H    -0.74423064E+00   -0.47576266E+00    0.68722202E-01
           3
Time step:                   5 Sim. Time [au]         200.00
O     0.86790119E-02    0.10063536E+00   -0.21561795E-01
H     0.73864908E+00   -0.45007375E+00    0.75941909E-01
H    -0.73119196E+00   -0.46859078E+00    0.83866759E-01
           3
Time step:                   6 Sim. Time [au]         240.00
O     0.79406206E-01    0.10451783E+00    0.97724495E-02
H     0.85323578E+00   -0.48327060E+00    0.82826637E-02
H    -0.70968267E+00   -0.38311546E+00   -0.34850187E-01
           3
Time step:                   7 Sim. Time [au]         280.00
O     0.79576305E-01    0.10371908E+00    0.10459383E-01
H     0.85327439E+00   -0.47074343E+00    0.13045751E-01
H    -0.72145008E+00   -0.38662558E+00   -0.37997796E-01
           3
Time step:                   8 Sim. Time [au]         320.00
O     0.15734558E-01    0.10639353E+00    0.27318809E-01
H     0.78273720E+00   -0.44285027E+00    0.12115660E+00
H    -0.75311476E+00   -0.46437909E+00    0.83131639E-01
           3
Time step:                   9 Sim. Time [au]         360.00
O     0.18115735E-01    0.10826508E+00    0.31138328E-01
H     0.78323201E+00   -0.44247862E+00    0.12576152E+00
H    -0.75292994E+00   -0.47255155E+00    0.95883280E-01
           3
Time step:                  10 Sim. Time [au]         400.00
O     0.31051304E-01    0.80886403E-01   -0.37427140E-01
H     0.77869458E+00   -0.50919681E+00    0.98814504E-01
H    -0.75398134E+00   -0.38883958E+00    0.11979824E+00
