           3
Time step:                   1 Sim. Time [au]          40.00
O     0.32351939E-02    0.11597494E+00    0.39135600E-02
H     0.75027629E+00   -0.47148625E+00    0.55620607E-02
H    -0.75392500E+00   -0.46754193E+00    0.13321393E-01
           3
Time step:                   2 Sim. Time [au]          80.00
O     0.50605765E-02    0.11494238E+00    0.53793043E-02
H     0.74141307E+00   -0.46889861E+00    0.15245292E-01
H    -0.74593145E+00   -0.46321568E+00    0.20888324E-01
           3
Time step:                   3 Sim. Time [au]         120.00
O     0.65656141E-02    0.11345833E+00    0.67116288E-02
H     0.73309994E+00   -0.46576799E+00    0.27188522E-01
H    -0.73425854E+00   -0.45750354E+00    0.26170595E-01
           3
Time step:                   4 Sim. Time [au]         160.00
O     0.55726340E-02    0.10404247E+00   -0.12052070E-01
H     0.74674889E+00   -0.45275531E+00    0.48733643E-01
H    -0.75010920E+00   -0.46338669E+00    0.50135595E-01
           3
Time step:                   5 Sim. Time [au]         200.00
O     0.52500304E-02    0.10232736E+00   -0.15506682E-01
H     0.73810173E+00   -0.45264407E+00    0.53474918E-01
H    -0.74263386E+00   -0.45956510E+00    0.72115790E-01
           3
Time step:                   6 Sim. Time [au]         240.00
O     0.89818524E-01    0.10275162E+00    0.17013983E-01
H     0.84966554E+00   -0.49176011E+00    0.26250592E-01
H    -0.69604910E+00   -0.35785519E+00   -0.61794812E-01
           3
Time step:                   7 Sim. Time [au]         280.00
O     0.91007925E-01    0.10183829E+00    0.17896813E-01
H     0.85927261E+00   -0.47516491E+00    0.31287962E-01
H    -0.71650243E+00   -0.35016525E+00   -0.70289011E-01
           3
Time step:                   8 Sim. Time [au]         320.00
O     0.26212895E-01    0.10929290E+00    0.21039965E-01
H     0.78642430E+00   -0.45270047E+00    0.93835192E-01
H    -0.76349995E+00   -0.42703143E+00    0.71589734E-01
           3
Time step:                   9 Sim. Time [au]         360.00
O     0.28130854E-01    0.11124148E+00    0.24325069E-01
H     0.78837206E+00   -0.45216251E+00    0.99723707E-01
H    -0.76473853E+00   -0.41209062E+00    0.83713381E-01
           3
Time step:                  10 Sim. Time [au]         400.00
O     0.28560395E-01    0.11395755E+00    0.26037099E-01
H     0.78719627E+00   -0.44962987E+00    0.11978192E+00
H    -0.76084585E+00   -0.41003490E+00    0.84694715E-01
