           3
Time step:                   1 Sim. Time [au]          40.00
O     0.32351939E-02    0.11597494E+00    0.39135600E-02
H     0.75027629E+00   -0.47148625E+00    0.55620607E-02
H    -0.75392500E+00   -0.46754193E+00    0.13321393E-01
           3
Time step:                   2 Sim. Time [au]          80.00
O     0.50605765E-02    0.11494238E+00    0.53793043E-02
H     0.74141307E+00   -0.46889861E+00    0.15245292E-01
H    -0.74593145E+00   -0.46321568E+00    0.20888324E-01
           3
Time step:                   3 Sim. Time [au]         120.00
O     0.65656141E-02    0.11345833E+00    0.67116288E-02
H     0.73309994E+00   -0.46576799E+00    0.27188522E-01
H    -0.73425854E+00   -0.45750354E+00    0.26170595E-01
           3
Time step:                   4 Sim. Time [au]         160.00
O     0.10152110E-01    0.10361434E+00   -0.10672856E-01
H     0.74695613E+00   -0.45051472E+00    0.28251569E-01
H    -0.78598226E+00   -0.45270945E+00    0.18534142E-01
           3
Time step:                   5 Sim. Time [au]         200.00
O     0.83424292E-02    0.10135687E+00   -0.14702690E-01
H     0.76208524E+00   -0.44993185E+00    0.32925769E-01
H    -0.76812003E+00   -0.42965415E+00    0.18214826E-01
           3
Time step:                   6 Sim. Time [au]         240.00
O     0.89478927E-01    0.10283034E+00    0.25272204E-01
H     0.81702628E+00   -0.47857265E+00    0.71550402E-02
H    -0.68716191E+00   -0.41283790E+00   -0.80720730E-01
           3
Time step:                   7 Sim. Time [au]         280.00
O     0.90554844E-01    0.10234704E+00    0.27196508E-01
H     0.81688103E+00   -0.46242360E+00    0.11906214E-01
H    -0.69883033E+00   -0.42640356E+00   -0.95121152E-01
           3
Time step:                   8 Sim. Time [au]         320.00
O     0.22704148E-01    0.10649676E+00    0.13264328E-01
H     0.80446122E+00   -0.44876640E+00    0.11670784E+00
H    -0.76621569E+00   -0.43141399E+00    0.69731422E-01
           3
Time step:                   9 Sim. Time [au]         360.00
O     0.26950499E-01    0.10609611E+00    0.13780314E-01
H     0.80302286E+00   -0.44119151E+00    0.12558515E+00
H    -0.76395554E+00   -0.42369004E+00    0.71701516E-01
           3
Time step:                  10 Sim. Time [au]         400.00
O     0.28556354E-01    0.10405983E+00    0.15498478E-01
H     0.78249641E+00   -0.42596784E+00    0.14764625E+00
H    -0.75310018E+00   -0.41049484E+00    0.72032916E-01
