           3
Time step:                   1 Sim. Time [au]          40.00
O     0.32351939E-02    0.11597494E+00    0.39135600E-02
H     0.75027629E+00   -0.47148625E+00    0.55620607E-02
H    -0.75392500E+00   -0.46754193E+00    0.13321393E-01
           3
Time step:                   2 Sim. Time [au]          80.00
O     0.50605765E-02    0.11494238E+00    0.53793043E-02
H     0.74141307E+00   -0.46889861E+00    0.15245292E-01
H    -0.74593145E+00   -0.46321568E+00    0.20888324E-01
           3
Time step:                   3 Sim. Time [au]         120.00
O     0.65656141E-02    0.11345833E+00    0.67116288E-02
H     0.73309994E+00   -0.46576799E+00    0.27188522E-01
H    -0.73425854E+00   -0.45750354E+00    0.26170595E-01
           3
Time step:                   4 Sim. Time [au]         160.00
O     0.91278166E-02    0.10008846E+00   -0.17114610E-01
H     0.74700044E+00   -0.45250083E+00    0.73216423E-01
H    -0.77672792E+00   -0.45895651E+00    0.72525345E-01
           3
Time step:                   5 Sim. Time [au]         200.00
O     0.71315852E-02    0.97839986E-01   -0.18106230E-01
H     0.76166352E+00   -0.45669236E+00    0.76938718E-01
H    -0.76257355E+00   -0.44046681E+00    0.95367990E-01
           3
Time step:                   6 Sim. Time [au]         240.00
O     0.92382924E-01    0.10401096E+00    0.43902501E-03
H     0.85650844E+00   -0.48508152E+00    0.16337168E-03
H    -0.71226303E+00   -0.39441680E+00   -0.56470292E-02
           3
Time step:                   7 Sim. Time [au]         280.00
O     0.95373390E-01    0.10337700E+00    0.46102076E-03
H     0.85978390E+00   -0.46715400E+00    0.16232044E-03
H    -0.71819462E+00   -0.39606344E+00   -0.57642201E-02
           3
Time step:                   8 Sim. Time [au]         320.00
O     0.24645904E-01    0.10626251E+00    0.28390953E-01
H     0.78616129E+00   -0.45006126E+00    0.99290183E-01
H    -0.74784249E+00   -0.43958252E+00    0.83815032E-01
           3
Time step:                   9 Sim. Time [au]         360.00
O     0.27422792E-01    0.10685159E+00    0.32291852E-01
H     0.78496314E+00   -0.44945499E+00    0.10223033E+00
H    -0.75199132E+00   -0.44088344E+00    0.90889676E-01
           3
Time step:                  10 Sim. Time [au]         400.00
O     0.28269487E-01    0.10880325E+00    0.34214109E-01
H     0.77889677E+00   -0.44835349E+00    0.11008065E+00
H    -0.76096035E+00   -0.43899700E+00    0.10099509E+00
