           3
Time step:                   1 Sim. Time [au]          40.00
O     0.69929679E-02    0.11635767E+00   -0.23871246E-02
H     0.76200927E+00   -0.49358037E+00    0.11930212E-01
H    -0.75878350E+00   -0.45379960E+00    0.13188727E-01
           3
Time step:                   2 Sim. Time [au]          80.00
O     0.93639294E-01    0.11761686E+00    0.33711398E-02
H     0.79885438E+00   -0.49880238E+00    0.90958234E-03
H    -0.71268035E+00   -0.44151360E+00   -0.31165625E-01
           3
Time step:                   3 Sim. Time [au]         120.00
O     0.90208158E-01    0.11564416E+00    0.90622534E-02
H     0.81318410E+00   -0.51402030E+00    0.16643159E-02
H    -0.69042952E+00   -0.40948078E+00   -0.40664997E-01
           3
Time step:                   4 Sim. Time [au]         160.00
O     0.91239487E-02    0.11004395E+00    0.89992647E-02
H     0.72626313E+00   -0.45753366E+00    0.33619628E-01
H    -0.72658379E+00   -0.45020989E+00    0.33055994E-01
           3
Time step:                   5 Sim. Time [au]         200.00
O     0.14853061E-01    0.10602672E+00    0.11508735E-01
H     0.72802903E+00   -0.44537063E+00    0.43040868E-01
H    -0.72366085E+00   -0.44047122E+00    0.56549564E-01
           3
Time step:                   6 Sim. Time [au]         240.00
O     0.38053465E-02    0.96278586E-01   -0.15936744E-01
H     0.77537693E+00   -0.45343297E+00    0.34774224E-01
H    -0.76284501E+00   -0.42555765E+00    0.17104334E-01
           3
Time step:                   7 Sim. Time [au]         280.00
O    -0.26445167E-03    0.91275918E-01   -0.17127851E-01
H     0.78101452E+00   -0.46331067E+00    0.36222222E-01
H    -0.76048506E+00   -0.42599709E+00    0.15722459E-01
           3
Time step:                   8 Sim. Time [au]         320.00
O     0.90880778E-01    0.10228860E+00    0.28683012E-01
H     0.82725672E+00   -0.45937918E+00    0.24036325E-01
H    -0.69979291E+00   -0.42944855E+00   -0.10394048E+00
           3
Time step:                   9 Sim. Time [au]         360.00
O     0.90105436E-01    0.10227904E+00    0.32246152E-01
H     0.86027567E+00   -0.46074290E+00    0.52303726E-01
H    -0.68788113E+00   -0.42878439E+00   -0.11474373E+00
           3
Time step:                  10 Sim. Time [au]         400.00
O    -0.49442413E-02    0.80247418E-01   -0.28617206E-01
H     0.74972453E+00   -0.50493501E+00    0.36782784E-01
H    -0.78894649E+00   -0.47828153E+00    0.91101892E-02
