           3
Time step:                   1 Sim. Time [au]          40.00
O     0.98206772E-01    0.11803633E+00    0.39641905E-03
H     0.78027581E+00   -0.48143489E+00    0.98196956E-04
H    -0.73418588E+00   -0.46266146E+00   -0.47855396E-02
           3
Time step:                   2 Sim. Time [au]          80.00
O     0.67687596E-02    0.95173723E-01   -0.65632326E-02
H     0.61384452E+00   -0.39480672E+00    0.27965927E-01
H    -0.62235648E+00   -0.36330532E+00    0.28683692E-01
           3
Time step:                   3 Sim. Time [au]         120.00
O     0.37265686E-02    0.94422883E-01   -0.46867567E-02
H     0.62015631E+00   -0.39796511E+00    0.28333021E-01
H    -0.61224131E+00   -0.35295964E+00    0.12778108E-01
           3
Time step:                   4 Sim. Time [au]         160.00
O     0.35694931E-02    0.10282213E+00   -0.24457890E-02
H     0.67587659E+00   -0.44211736E+00    0.35966949E-01
H    -0.68421465E+00   -0.40511718E+00    0.12658075E-02
           3
Time step:                   5 Sim. Time [au]         200.00
O     0.39494080E-02    0.10626117E+00    0.17578134E-02
H     0.70320995E+00   -0.46552124E+00    0.56270831E-01
H    -0.71611822E+00   -0.43025551E+00   -0.97575695E-02
           3
Time step:                   6 Sim. Time [au]         240.00
O     0.20624918E-01    0.15119875E+00    0.20067170E-01
H     0.10614926E+01   -0.63104882E+00    0.51560918E-01
H    -0.10533571E+01   -0.59867751E+00    0.87142954E-01
           3
Time step:                   7 Sim. Time [au]         280.00
O     0.26334602E-01    0.15408814E+00    0.20844966E-01
H     0.10764592E+01   -0.64390100E+00    0.54398480E-01
H    -0.10677420E+01   -0.61082674E+00    0.66257740E-01
           3
Time step:                   8 Sim. Time [au]         320.00
O     0.10813235E+00    0.98273505E-01   -0.89756193E-02
H     0.70077422E+00   -0.39595877E+00    0.34042457E-02
H    -0.57984848E+00   -0.34013837E+00    0.19310082E-01
           3
Time step:                   9 Sim. Time [au]         360.00
O     0.10889826E+00    0.95876276E-01   -0.79937044E-02
H     0.69038116E+00   -0.38682772E+00    0.13438477E-02
H    -0.55995836E+00   -0.32522811E+00    0.14643902E-01
           3
Time step:                  10 Sim. Time [au]         400.00
O     0.10808530E+00    0.10224565E+00   -0.14011980E-02
H     0.76293034E+00   -0.44821785E+00    0.25658294E-04
H    -0.62121633E+00   -0.36691993E+00    0.13768817E-01
