           3
 Time step:           1
O   0.9820677216E-01  0.1180363310E+00  0.3964190548E-03
H   0.7802758100E+00 -0.4814348911E+00  0.9819695645E-04
H  -0.7341858759E+00 -0.4626614583E+00 -0.4785539578E-02
           3
 Time step:           2
O   0.6768759614E-02  0.9517372260E-01 -0.6563232647E-02
H   0.6138445180E+00 -0.3948067197E+00  0.2796592731E-01
H  -0.6223564833E+00 -0.3633053212E+00  0.2868369212E-01
           3
 Time step:           3
O   0.3726568649E-02  0.9442288252E-01 -0.4686756735E-02
H   0.6201563056E+00 -0.3979651077E+00  0.2833302117E-01
H  -0.6122413126E+00 -0.3529596423E+00  0.1277810752E-01
           3
 Time step:           4
O   0.3569493150E-02  0.1028221302E+00 -0.2445789008E-02
H   0.6758765904E+00 -0.4421173641E+00  0.3596694860E-01
H  -0.6842146482E+00 -0.4051171799E+00  0.1265807484E-02
           3
 Time step:           5
O   0.3949407959E-02  0.1062611731E+00  0.1757813422E-02
H   0.7032099537E+00 -0.4655212419E+00  0.5627083126E-01
H  -0.7161182189E+00 -0.4302555075E+00 -0.9757569494E-02
           3
 Time step:           6
O   0.2062491792E-01  0.1511987451E+00  0.2006717004E-01
H   0.1061492568E+01 -0.6310488171E+00  0.5156091787E-01
H  -0.1053357072E+01 -0.5986775144E+00  0.8714295430E-01
           3
 Time step:           7
O   0.2633460219E-01  0.1540881365E+00  0.2084496637E-01
H   0.1076459195E+01 -0.6439009986E+00  0.5439847987E-01
H  -0.1067741960E+01 -0.6108267369E+00  0.6625773989E-01
           3
 Time step:           8
O   0.1081323520E+00  0.9827350519E-01 -0.8975619277E-02
H   0.7007742179E+00 -0.3959587680E+00  0.3404245740E-02
H  -0.5798484781E+00 -0.3401383652E+00  0.1931008232E-01
           3
 Time step:           9
O   0.1088982570E+00  0.9587627598E-01 -0.7993704366E-02
H   0.6903811577E+00 -0.3868277197E+00  0.1343847714E-02
H  -0.5599583650E+00 -0.3252281061E+00  0.1464390234E-01
           3
 Time step:          10
O   0.1080852986E+00  0.1022456482E+00 -0.1401198011E-02
H   0.7629303362E+00 -0.4482178465E+00  0.2565829362E-04
H  -0.6212163348E+00 -0.3669199295E+00  0.1376881724E-01
