           3
Time step:                   1 Sim. Time [au]          40.00
O     0.57886842E-02    0.11679689E+00   -0.37638814E-02
H     0.76607632E+00   -0.49285420E+00    0.18502037E-01
H    -0.75641219E+00   -0.44962089E+00    0.20219431E-01
           3
Time step:                   2 Sim. Time [au]          80.00
O     0.92386502E-01    0.11750602E+00    0.24734543E-03
H     0.79766652E+00   -0.49824487E+00    0.64195201E-04
H    -0.71393922E+00   -0.44371925E+00   -0.29843261E-02
           3
Time step:                   3 Sim. Time [au]         120.00
O     0.89699108E-01    0.11363133E+00    0.32661144E-03
H     0.81056448E+00   -0.50865574E+00    0.95671238E-04
H    -0.68478649E+00   -0.41608136E+00   -0.39714923E-02
           3
Time step:                   4 Sim. Time [au]         160.00
O     0.91239487E-02    0.11004395E+00    0.89992647E-02
H     0.72626313E+00   -0.45753366E+00    0.33619628E-01
H    -0.72658379E+00   -0.45020989E+00    0.33055994E-01
           3
Time step:                   5 Sim. Time [au]         200.00
O     0.15457023E-01    0.10600815E+00    0.15527388E-01
H     0.72788730E+00   -0.44210296E+00    0.45548373E-01
H    -0.72664815E+00   -0.44187107E+00    0.64890247E-01
           3
Time step:                   6 Sim. Time [au]         240.00
O     0.26685447E-02    0.92746262E-01   -0.22314601E-01
H     0.77444017E+00   -0.46576185E+00    0.78333798E-01
H    -0.75305644E+00   -0.43215044E+00    0.10006839E+00
           3
Time step:                   7 Sim. Time [au]         280.00
O    -0.65421034E-03    0.88264494E-01   -0.26092578E-01
H     0.77700425E+00   -0.48143873E+00    0.78966367E-01
H    -0.74457519E+00   -0.42191693E+00    0.10498923E+00
           3
Time step:                   8 Sim. Time [au]         320.00
O     0.97454590E-01    0.10298943E+00    0.49187809E-03
H     0.85718427E+00   -0.46152670E+00    0.95459545E-04
H    -0.71640079E+00   -0.39755534E+00   -0.59239226E-02
           3
Time step:                   9 Sim. Time [au]         360.00
O     0.99030145E-01    0.10268404E+00    0.58143462E-03
H     0.84153184E+00   -0.44537104E+00   -0.10982585E-02
H    -0.70139329E+00   -0.40062792E+00   -0.77618957E-02
           3
Time step:                  10 Sim. Time [au]         400.00
O     0.99310816E-01    0.10296207E+00    0.75364881E-03
H     0.81939223E+00   -0.41541810E+00   -0.81085104E-02
H    -0.67946790E+00   -0.41143865E+00   -0.16272159E-01
