           6
Time step:                   1 Sim. Time [au]          20.67
C    -0.59676503E-02   -0.10456489E-02    0.33648846E-01
N    -0.89868780E-03   -0.39814384E-02    0.12845223E+01
H     0.10740365E+01    0.92457270E-01   -0.43342971E+00
H     0.90947726E+00   -0.65979878E-01    0.18960956E+01
H    -0.87490597E+00    0.11136291E+00    0.19319373E+01
H    -0.10256222E+01   -0.70554895E-01   -0.48943633E+00
           6
Time step:                   2 Sim. Time [au]          41.34
C    -0.54956045E-02    0.38253482E-02    0.29587614E-01
N     0.35558600E-02   -0.81607216E-02    0.12859539E+01
H     0.10159406E+01    0.69666284E-01   -0.42102798E+00
H     0.88968806E+00   -0.42759809E-01    0.18928178E+01
H    -0.90823589E+00    0.11985151E+00    0.19427377E+01
H    -0.98243085E+00   -0.79405571E-01   -0.48056288E+00
           6
Time step:                   3 Sim. Time [au]          62.01
C    -0.48266385E-02    0.87457355E-02    0.22309252E-01
N     0.75701370E-02   -0.12308562E-01    0.12909694E+01
H     0.95376675E+00    0.46085132E-01   -0.40996167E+00
H     0.86727868E+00   -0.18849443E-01    0.18864423E+01
H    -0.93381354E+00    0.12673793E+00    0.19471943E+01
H    -0.93652213E+00   -0.87579636E-01   -0.47237859E+00
           6
Time step:                   4 Sim. Time [au]          82.68
C    -0.40704634E-02    0.13761940E-01    0.12201883E-01
N     0.11144311E-01   -0.16425895E-01    0.12997370E+01
H     0.89279483E+00    0.21189101E-01   -0.40213366E+00
H     0.84219927E+00    0.62836650E-02    0.18742188E+01
H    -0.95210835E+00    0.13122006E+00    0.19444393E+01
H    -0.89135170E+00   -0.94822938E-01   -0.46632612E+00
           6
Time step:                   5 Sim. Time [au]         103.35
C    -0.35492501E-02    0.18945849E-01    0.12085730E-03
N     0.14094853E-01   -0.20517602E-01    0.13115487E+01
H     0.84107644E+00   -0.61213770E-02   -0.40113238E+00
H     0.81700755E+00    0.33712429E-01    0.18610851E+01
H    -0.96201006E+00    0.13226331E+00    0.19356431E+01
H    -0.85224999E+00   -0.10086295E+00   -0.46527829E+00
           6
Time step:                   6 Sim. Time [au]         124.02
C    -0.36574529E-02    0.24481076E-01   -0.12398439E-01
N     0.16316825E-01   -0.24633907E-01    0.13252613E+01
H     0.80790415E+00   -0.38001866E-01   -0.41109531E+00
H     0.79534333E+00    0.64856965E-01    0.18506985E+01
H    -0.96480794E+00    0.12917535E+00    0.19223258E+01
H    -0.82470169E+00   -0.10576191E+00   -0.47268441E+00
           6
Time step:                   7 Sim. Time [au]         144.69
C    -0.44410972E-02    0.30684822E-01   -0.24802496E-01
N     0.17629428E-01   -0.28824358E-01    0.13405005E+01
H     0.79817758E+00   -0.80351786E-01   -0.43394480E+00
H     0.78056549E+00    0.10382395E+00    0.18449611E+01
H    -0.96137272E+00    0.11840230E+00    0.19052862E+01
H    -0.81304854E+00   -0.10723984E+00   -0.49070239E+00
           6
Time step:                   8 Sim. Time [au]         165.36
C    -0.57141245E-02    0.37277746E-01   -0.37576778E-01
N     0.17437952E-01   -0.33047584E-01    0.13575118E+01
H     0.81133725E+00   -0.12508384E+00   -0.46913098E+00
H     0.77638763E+00    0.14450777E+00    0.18451372E+01
H    -0.94868966E+00    0.10590323E+00    0.18831031E+01
H    -0.81739768E+00   -0.11050832E+00   -0.51736566E+00
           6
Time step:                   9 Sim. Time [au]         186.03
C    -0.70924850E-02    0.44249270E-01   -0.50687312E-01
N     0.15819924E-01   -0.37368677E-01    0.13758090E+01
H     0.84143329E+00   -0.17330114E+00   -0.51329149E+00
H     0.78339394E+00    0.18859408E+00    0.18517439E+01
H    -0.92836091E+00    0.91015988E-01    0.18572699E+01
H    -0.83643480E+00   -0.11445722E+00   -0.55169801E+00
           6
Time step:                  10 Sim. Time [au]         206.70
C    -0.82228285E-02    0.51427756E-01   -0.64346478E-01
N     0.13121633E-01   -0.41807783E-01    0.13950243E+01
H     0.88049695E+00   -0.22419701E+00   -0.56189153E+00
H     0.79948084E+00    0.23653106E+00    0.18636724E+01
H    -0.90300021E+00    0.73728774E-01    0.18296974E+01
H    -0.86649623E+00   -0.11800442E+00   -0.59139351E+00
           6
Time step:                  11 Sim. Time [au]         227.37
C    -0.89100434E-02    0.58573277E-01   -0.78810074E-01
N     0.99296408E-02   -0.46329988E-01    0.14148658E+01
H     0.92157780E+00   -0.27617215E+00   -0.61089503E+00
H     0.82067052E+00    0.28766781E+00    0.18787862E+01
H    -0.87668852E+00    0.54382126E-01    0.18028132E+01
H    -0.90304840E+00   -0.12006519E+00   -0.63367490E+00
           6
Time step:                  12 Sim. Time [au]         248.04
C    -0.91037462E-02    0.65455029E-01   -0.94264141E-01
N     0.69872528E-02   -0.50864507E-01    0.14350553E+01
H     0.95977136E+00   -0.32756923E+00   -0.65740126E+00
H     0.84251693E+00    0.34061182E+00    0.18948441E+01
H    -0.85522376E+00    0.33564040E-01    0.17794897E+01
H    -0.94187205E+00   -0.11972573E+00   -0.67599281E+00
           6
Time step:                  13 Sim. Time [au]         268.71
C    -0.88360354E-02    0.71885196E-01   -0.11080602E+00
N     0.50713662E-02   -0.55326388E-01    0.14553229E+01
H     0.99200220E+00   -0.37697751E+00   -0.69955815E+00
H     0.86115777E+00    0.39370632E+00    0.19100821E+01
H    -0.84545555E+00    0.11919454E-01    0.17625371E+01
H    -0.97959303E+00   -0.11632749E+00   -0.71633393E+00
           6
Time step:                  14 Sim. Time [au]         289.38
C    -0.81726413E-02    0.77723380E-01   -0.12846374E+00
N     0.47987198E-02   -0.59620399E-01    0.14754657E+01
H     0.10164864E+01   -0.42328789E+00   -0.73627246E+00
H     0.87373077E+00    0.44538568E+00    0.19233482E+01
H    -0.85300636E+00   -0.10162506E-01    0.17537178E+01
H    -0.10137295E+01   -0.10945345E+00   -0.75324946E+00
           6
Time step:                  15 Sim. Time [au]         310.05
C    -0.71886509E-02    0.82868569E-01   -0.14722360E+00
N     0.64114384E-02   -0.63640952E-01    0.14954120E+01
H     0.10322661E+01   -0.46565038E+00   -0.76693553E+00
H     0.87836064E+00    0.49434963E+00    0.19339961E+01
H    -0.87926864E+00   -0.32733631E-01    0.17529176E+01
H    -0.10425258E+01   -0.98865135E-01   -0.78575328E+00
           6
Time step:                  16 Sim. Time [au]         330.72
C    -0.59597532E-02    0.87246271E-01   -0.16706428E+00
N     0.97239675E-02   -0.67291502E-01    0.15152183E+01
H     0.10388892E+01   -0.50339136E+00   -0.79118194E+00
H     0.87398547E+00    0.53961813E+00    0.19417144E+01
H    -0.92047937E+00   -0.56091061E-01    0.17583522E+01
H    -0.10647505E+01   -0.84412965E-01   -0.81315485E+00
           6
Time step:                  17 Sim. Time [au]         351.38
C    -0.45322682E-02    0.90792996E-01   -0.18799168E+00
N     0.14281204E-01   -0.70513525E-01    0.15350060E+01
H     0.10361130E+01   -0.53586457E+00   -0.80868507E+00
H     0.86021768E+00    0.58055872E+00    0.19463572E+01
H    -0.96989219E+00   -0.80429434E-01    0.17676564E+01
H    -0.10796436E+01   -0.65972788E-01   -0.83488608E+00
           6
Time step:                  18 Sim. Time [au]         372.05
C    -0.29155493E-02    0.93472397E-01   -0.20992205E+00
N     0.19575187E-01   -0.73282705E-01    0.15548304E+01
H     0.10238105E+01   -0.56258026E+00   -0.81951196E+00
H     0.83713270E+00    0.61678718E+00    0.19479964E+01
H    -0.10206267E+01   -0.10564046E+00    0.17789390E+01
H    -0.10868642E+01   -0.43663248E-01   -0.85082815E+00
           6
Time step:                  19 Sim. Time [au]         392.72
C    -0.11617908E-02    0.95275697E-01   -0.23270285E+00
N     0.25205276E-01   -0.75603021E-01    0.15746760E+01
H     0.10022122E+01   -0.58334217E+00   -0.82403800E+00
H     0.80507341E+00    0.64811467E+00    0.19469367E+01
H    -0.10673436E+01   -0.13134693E+00    0.17908921E+01
H    -0.10861356E+01   -0.17709065E-01   -0.86120289E+00
           6
Time step:                  20 Sim. Time [au]         413.39
C     0.68133009E-03    0.96201154E-01   -0.25620035E+00
N     0.30872712E-01   -0.77511495E-01    0.15945055E+01
H     0.97169944E+00   -0.59801829E+00   -0.82261807E+00
H     0.76474512E+00    0.67468743E+00    0.19435812E+01
H    -0.11064550E+01   -0.15709052E+00    0.18026732E+01
H    -0.10774130E+01    0.11688383E-01   -0.86629208E+00
