           6
 Time step:           1
C  -0.5967650314E-02 -0.1045648908E-02  0.3364884646E-01
N  -0.8986877981E-03 -0.3981438427E-02  0.1284522305E+01
H   0.1074036521E+01  0.9245726993E-01 -0.4334297094E+00
H   0.9094772620E+00 -0.6597987819E-01  0.1896095637E+01
H  -0.8749059713E+00  0.1113629051E+00  0.1931937268E+01
H  -0.1025622239E+01 -0.7055489549E-01 -0.4894363337E+00
           6
 Time step:           2
C  -0.5495604464E-02  0.3825348199E-02  0.2958761379E-01
N   0.3555859950E-02 -0.8160721640E-02  0.1285953927E+01
H   0.1015940593E+01  0.6966628443E-01 -0.4210279757E+00
H   0.8896880636E+00 -0.4275980870E-01  0.1892817783E+01
H  -0.9082358882E+00  0.1198515066E+00  0.1942737726E+01
H  -0.9824308477E+00 -0.7940557063E-01 -0.4805628817E+00
           6
 Time step:           3
C  -0.4826638532E-02  0.8745735507E-02  0.2230925163E-01
N   0.7570136973E-02 -0.1230856244E-01  0.1290969382E+01
H   0.9537667519E+00  0.4608513212E-01 -0.4099616666E+00
H   0.8672786820E+00 -0.1884944328E-01  0.1886442334E+01
H  -0.9338135418E+00  0.1267379329E+00  0.1947194281E+01
H  -0.9365221301E+00 -0.8757963572E-01 -0.4723785898E+00
           6
 Time step:           4
C  -0.4070463449E-02  0.1376193993E-01  0.1220188327E-01
N   0.1114431074E-01 -0.1642589468E-01  0.1299736990E+01
H   0.8927948328E+00  0.2118910096E-01 -0.4021336631E+00
H   0.8421992680E+00  0.6283664976E-02  0.1874218791E+01
H  -0.9521083475E+00  0.1312200647E+00  0.1944439294E+01
H  -0.8913517048E+00 -0.9482293780E-01 -0.4663261162E+00
           6
 Time step:           5
C  -0.3549250065E-02  0.1894584858E-01  0.1208573046E-03
N   0.1409485260E-01 -0.2051760233E-01  0.1311548690E+01
H   0.8410764412E+00 -0.6121377043E-02 -0.4011323788E+00
H   0.8170075522E+00  0.3371242882E-01  0.1861085092E+01
H  -0.9620100572E+00  0.1322633100E+00  0.1935643077E+01
H  -0.8522499889E+00 -0.1008629461E+00 -0.4652782866E+00
           6
 Time step:           6
C  -0.3657452888E-02  0.2448107577E-01 -0.1239843863E-01
N   0.1631682459E-01 -0.2463390693E-01  0.1325261278E+01
H   0.8079041546E+00 -0.3800186568E-01 -0.4110953124E+00
H   0.7953433278E+00  0.6485696513E-01  0.1850698490E+01
H  -0.9648079392E+00  0.1291753512E+00  0.1922325812E+01
H  -0.8247016929E+00 -0.1057619144E+00 -0.4726844150E+00
           6
 Time step:           7
C  -0.4441097171E-02  0.3068482225E-01 -0.2480249585E-01
N   0.1762942782E-01 -0.2882435778E-01  0.1340500531E+01
H   0.7981775808E+00 -0.8035178617E-01 -0.4339447956E+00
H   0.7805654931E+00  0.1038239469E+00  0.1844961070E+01
H  -0.9613727182E+00  0.1184023042E+00  0.1905286152E+01
H  -0.8130485393E+00 -0.1072398443E+00 -0.4907023923E+00
           6
 Time step:           8
C  -0.5714124463E-02  0.3727774556E-01 -0.3757677801E-01
N   0.1743795212E-01 -0.3304758405E-01  0.1357511780E+01
H   0.8113372496E+00 -0.1250838416E+00 -0.4691309805E+00
H   0.7763876276E+00  0.1445077732E+00  0.1845137201E+01
H  -0.9486896582E+00  0.1059032272E+00  0.1883103059E+01
H  -0.8173976775E+00 -0.1105083165E+00 -0.5173656633E+00
           6
 Time step:           9
C  -0.7092485044E-02  0.4424927005E-01 -0.5068731162E-01
N   0.1581992392E-01 -0.3736867693E-01  0.1375808995E+01
H   0.8414332931E+00 -0.1733011396E+00 -0.5132914901E+00
H   0.7833939384E+00  0.1885940818E+00  0.1851743905E+01
H  -0.9283609075E+00  0.9101598808E-01  0.1857269888E+01
H  -0.8364348045E+00 -0.1144572167E+00 -0.5516980129E+00
           6
 Time step:          10
C  -0.8222828458E-02  0.5142775560E-01 -0.6434647787E-01
N   0.1312163329E-01 -0.4180778333E-01  0.1395024290E+01
H   0.8804969543E+00 -0.2241970055E+00 -0.5618915264E+00
H   0.7994808438E+00  0.2365310552E+00  0.1863672435E+01
H  -0.9030002149E+00  0.7372877384E-01  0.1829697420E+01
H  -0.8664962310E+00 -0.1180044230E+00 -0.5913935096E+00
           6
 Time step:          11
C  -0.8910043356E-02  0.5857327747E-01 -0.7881007406E-01
N   0.9929640847E-02 -0.4632998805E-01  0.1414865762E+01
H   0.9215778013E+00 -0.2761721471E+00 -0.6108950342E+00
H   0.8206705250E+00  0.2876678059E+00  0.1878786159E+01
H  -0.8766885184E+00  0.5438212618E-01  0.1802813173E+01
H  -0.9030483999E+00 -0.1200651926E+00 -0.6336748957E+00
           6
 Time step:          12
C  -0.9103746239E-02  0.6545502930E-01 -0.9426414050E-01
N   0.6987252771E-02 -0.5086450707E-01  0.1435055281E+01
H   0.9597713595E+00 -0.3275692283E+00 -0.6574012569E+00
H   0.8425169258E+00  0.3406118159E+00  0.1894844085E+01
H  -0.8552237576E+00  0.3356404019E-01  0.1779489695E+01
H  -0.9418720533E+00 -0.1197257285E+00 -0.6759928090E+00
           6
 Time step:          13
C  -0.8836035395E-02  0.7188519643E-01 -0.1108060157E+00
N   0.5071366189E-02 -0.5532638771E-01  0.1455322867E+01
H   0.9920021991E+00 -0.3769775129E+00 -0.6995581455E+00
H   0.8611577666E+00  0.3937063191E+00  0.1910082128E+01
H  -0.8454555470E+00  0.1191945422E-01  0.1762537143E+01
H  -0.9795930273E+00 -0.1163274882E+00 -0.7163339265E+00
           6
 Time step:          14
C  -0.8172641257E-02  0.7772338000E-01 -0.1284637400E+00
N   0.4798719794E-02 -0.5962039855E-01  0.1475465717E+01
H   0.1016486371E+01 -0.4232878886E+00 -0.7362724624E+00
H   0.8737307746E+00  0.4453856838E+00  0.1923348175E+01
H  -0.8530063553E+00 -0.1016250577E-01  0.1753717826E+01
H  -0.1013729508E+01 -0.1094534520E+00 -0.7532494586E+00
           6
 Time step:          15
C  -0.7188650894E-02  0.8286856880E-01 -0.1472236033E+00
N   0.6411438409E-02 -0.6364095175E-01  0.1495412018E+01
H   0.1032266118E+01 -0.4656503786E+00 -0.7669355270E+00
H   0.8783606443E+00  0.4943496256E+00  0.1933996093E+01
H  -0.8792686375E+00 -0.3273363051E-01  0.1752917619E+01
H  -0.1042525788E+01 -0.9886513527E-01 -0.7857532764E+00
           6
 Time step:          16
C  -0.5959753225E-02  0.8724627144E-01 -0.1670642829E+00
N   0.9723967453E-02 -0.6729150227E-01  0.1515218323E+01
H   0.1038889242E+01 -0.5033913596E+00 -0.7911819400E+00
H   0.8739854739E+00  0.5396181300E+00  0.1941714381E+01
H  -0.9204793734E+00 -0.5609106063E-01  0.1758352153E+01
H  -0.1064750470E+01 -0.8441296480E-01 -0.8131548501E+00
           6
 Time step:          17
C  -0.4532268218E-02  0.9079299594E-01 -0.1879916761E+00
N   0.1428120406E-01 -0.7051352514E-01  0.1535006001E+01
H   0.1036112979E+01 -0.5358645710E+00 -0.8086850714E+00
H   0.8602176794E+00  0.5805587184E+00  0.1946357154E+01
H  -0.9698921908E+00 -0.8042943409E-01  0.1767656358E+01
H  -0.1079643611E+01 -0.6597278847E-01 -0.8348860848E+00
           6
 Time step:          18
C  -0.2915549274E-02  0.9347239682E-01 -0.2099220515E+00
N   0.1957518692E-01 -0.7328270497E-01  0.1554830444E+01
H   0.1023810525E+01 -0.5625802582E+00 -0.8195119600E+00
H   0.8371326986E+00  0.6167871822E+00  0.1947996380E+01
H  -0.1020626718E+01 -0.1056404564E+00  0.1778939031E+01
H  -0.1086864217E+01 -0.4366324849E-01 -0.8508281535E+00
           6
 Time step:          19
C  -0.1161790779E-02  0.9527569706E-01 -0.2327028451E+00
N   0.2520527597E-01 -0.7560302058E-01  0.1574676013E+01
H   0.1002212196E+01 -0.5833421728E+00 -0.8240380020E+00
H   0.8050734069E+00  0.6481146733E+00  0.1946936749E+01
H  -0.1067343643E+01 -0.1313469343E+00  0.1790892112E+01
H  -0.1086135635E+01 -0.1770906466E-01 -0.8612028891E+00
           6
 Time step:          20
C   0.6813300925E-03  0.9620115403E-01 -0.2562003467E+00
N   0.3087271176E-01 -0.7751149475E-01  0.1594505493E+01
H   0.9716994389E+00 -0.5980182929E+00 -0.8226180708E+00
H   0.7647451189E+00  0.6746874303E+00  0.1943581245E+01
H  -0.1106454975E+01 -0.1570905221E+00  0.1802673196E+01
H  -0.1077412998E+01  0.1168838327E-01 -0.8662920824E+00
