           2
 Time step:           1
H  -0.2590125256E-03  0.7425212715E-02  0.6792842543E-02
H   0.2590125256E-03 -0.7425212715E-02  0.2993207157E+01
           2
 Time step:           2
H  -0.4049632553E-03  0.9071946562E-02  0.1435353546E-01
H   0.4049632553E-03 -0.9071946562E-02  0.2985646465E+01
           2
 Time step:           3
H  -0.4888305241E-03  0.9885454837E-02  0.2242577139E-01
H   0.4888305241E-03 -0.9885454837E-02  0.2977574229E+01
           2
 Time step:           4
H  -0.5471042350E-03  0.1062518047E-01  0.3068506217E-01
H   0.5471042350E-03 -0.1062518047E-01  0.2969314938E+01
           2
 Time step:           5
H  -0.5968228293E-03  0.1148262249E-01  0.3879048126E-01
H   0.5968228293E-03 -0.1148262249E-01  0.2961209519E+01
           2
 Time step:           6
H  -0.6500485553E-03  0.1273531526E-01  0.4656574441E-01
H   0.6500485553E-03 -0.1273531526E-01  0.2953434256E+01
           2
 Time step:           7
H  -0.7318838980E-03  0.1509165745E-01  0.5423560393E-01
H   0.7318838980E-03 -0.1509165745E-01  0.2945764396E+01
           2
 Time step:           8
H  -0.9484238556E-03  0.2009260505E-01  0.6247584843E-01
H   0.9484238556E-03 -0.2009260505E-01  0.2937524152E+01
           2
 Time step:           9
H  -0.1536073256E-02  0.2873342543E-01  0.7178155167E-01
H   0.1536073256E-02 -0.2873342543E-01  0.2928218448E+01
           2
 Time step:          10
H  -0.2601479936E-02  0.3933573916E-01  0.8182871454E-01
H   0.2601479936E-02 -0.3933573916E-01  0.2918171285E+01
           2
 Time step:          11
H  -0.4364864411E-02  0.4943903505E-01  0.9146403666E-01
H   0.4364864411E-02 -0.4943903505E-01  0.2908535963E+01
           2
 Time step:          12
H  -0.7511960582E-02  0.5783883192E-01  0.9954651803E-01
H   0.7511960582E-02 -0.5783883192E-01  0.2900453482E+01
           2
 Time step:          13
H  -0.1339445211E-01  0.6456286760E-01  0.1057688806E+00
H   0.1339445211E-01 -0.6456286760E-01  0.2894231119E+01
           2
 Time step:          14
H  -0.2331429938E-01  0.7008641921E-01  0.1107007937E+00
H   0.2331429938E-01 -0.7008641921E-01  0.2889299206E+01
           2
 Time step:          15
H  -0.3578275142E-01  0.7488227415E-01  0.1155520660E+00
H   0.3578275142E-01 -0.7488227415E-01  0.2884447934E+01
           2
 Time step:          16
H  -0.4657106959E-01  0.7929481599E-01  0.1222402237E+00
H   0.4657106959E-01 -0.7929481599E-01  0.2877759776E+01
           2
 Time step:          17
H  -0.5402845952E-01  0.8354820671E-01  0.1323061588E+00
H   0.5402845952E-01 -0.8354820671E-01  0.2867693841E+01
           2
 Time step:          18
H  -0.5898561309E-01  0.8819962062E-01  0.1436340359E+00
H   0.5898561309E-01 -0.8819962062E-01  0.2856365964E+01
           2
 Time step:          19
H  -0.6226649503E-01  0.9434032704E-01  0.1525792527E+00
H   0.6226649503E-01 -0.9434032704E-01  0.2847420747E+01
           2
 Time step:          20
H  -0.6420842939E-01  0.1041613838E+00  0.1580896830E+00
H   0.6420842939E-01 -0.1041613838E+00  0.2841910317E+01
           2
 Time step:          21
H  -0.6518668361E-01  0.1197804285E+00  0.1606049898E+00
H   0.6518668361E-01 -0.1197804285E+00  0.2839395010E+01
           2
 Time step:          22
H  -0.6575079099E-01  0.1334212898E+00  0.1604424966E+00
H   0.6575079099E-01 -0.1334212898E+00  0.2839557503E+01
           2
 Time step:          23
H  -0.6622926914E-01  0.1390864680E+00  0.1505030502E+00
H   0.6622926914E-01 -0.1390864680E+00  0.2849496950E+01
           2
 Time step:          24
H  -0.6676708286E-01  0.1417495573E+00  0.1296062656E+00
H   0.6676708286E-01 -0.1417495573E+00  0.2870393734E+01
           2
 Time step:          25
H  -0.6747278398E-01  0.1438541324E+00  0.1172130738E+00
H   0.6747278398E-01 -0.1438541324E+00  0.2882786926E+01
           2
 Time step:          26
H  -0.6858669072E-01  0.1461150427E+00  0.1095770968E+00
H   0.6858669072E-01 -0.1461150427E+00  0.2890422903E+01
           2
 Time step:          27
H  -0.7108146733E-01  0.1490223978E+00  0.1027246489E+00
H   0.7108146733E-01 -0.1490223978E+00  0.2897275351E+01
           2
 Time step:          28
H  -0.7837163117E-01  0.1533743004E+00  0.9550809573E-01
H   0.7837163117E-01 -0.1533743004E+00  0.2904491904E+01
           2
 Time step:          29
H  -0.9121606763E-01  0.1608221772E+00  0.8772942339E-01
H   0.9121606763E-01 -0.1608221772E+00  0.2912270577E+01
           2
 Time step:          30
H  -0.1036502679E+00  0.1734205322E+00  0.7972837180E-01
H   0.1036502679E+00 -0.1734205322E+00  0.2920271628E+01
           2
 Time step:          31
H  -0.1126432270E+00  0.1878914302E+00  0.7229230036E-01
H   0.1126432270E+00 -0.1878914302E+00  0.2927707700E+01
           2
 Time step:          32
H  -0.1190043241E+00  0.1967999757E+00  0.6668946019E-01
H   0.1190043241E+00 -0.1967999757E+00  0.2933310540E+01
           2
 Time step:          33
H  -0.1239707915E+00  0.2006011644E+00  0.6372141862E-01
H   0.1239707915E+00 -0.2006011644E+00  0.2936278581E+01
           2
 Time step:          34
H  -0.1283572225E+00  0.2025874887E+00  0.6192373148E-01
H   0.1283572225E+00 -0.2025874887E+00  0.2938076269E+01
           2
 Time step:          35
H  -0.1327814044E+00  0.2041585783E+00  0.6008166603E-01
H   0.1327814044E+00 -0.2041585783E+00  0.2939918334E+01
           2
 Time step:          36
H  -0.1387160168E+00  0.2058172423E+00  0.5767070313E-01
H   0.1387160168E+00 -0.2058172423E+00  0.2942329297E+01
           2
 Time step:          37
H  -0.1519008395E+00  0.2079348133E+00  0.5421781502E-01
H   0.1519008395E+00 -0.2079348133E+00  0.2945782185E+01
           2
 Time step:          38
H  -0.1717220399E+00  0.2110906674E+00  0.4882479727E-01
H   0.1717220399E+00 -0.2110906674E+00  0.2951175203E+01
           2
 Time step:          39
H  -0.1815655815E+00  0.2163701217E+00  0.3955514078E-01
H   0.1815655815E+00 -0.2163701217E+00  0.2960444859E+01
           2
 Time step:          40
H  -0.1861974856E+00  0.2250000502E+00  0.2482959351E-01
H   0.1861974856E+00 -0.2250000502E+00  0.2975170406E+01
           2
 Time step:          41
H  -0.1895420034E+00  0.2361751728E+00  0.1156534345E-01
H   0.1895420034E+00 -0.2361751728E+00  0.2988434657E+01
           2
 Time step:          42
H  -0.1926917585E+00  0.2468749923E+00  0.9090805136E-02
H   0.1926917585E+00 -0.2468749923E+00  0.2990909195E+01
           2
 Time step:          43
H  -0.1962577398E+00  0.2554520915E+00  0.8477831225E-02
H   0.1962577398E+00 -0.2554520915E+00  0.2991522169E+01
           2
 Time step:          44
H  -0.2010872175E+00  0.2621956733E+00  0.8471525499E-02
H   0.2010872175E+00 -0.2621956733E+00  0.2991528475E+01
           2
 Time step:          45
H  -0.2090521719E+00  0.2678562534E+00  0.9056802993E-02
H   0.2090521719E+00 -0.2678562534E+00  0.2990943197E+01
           2
 Time step:          46
H  -0.2242224528E+00  0.2730722699E+00  0.1052098409E-01
H   0.2242224528E+00 -0.2730722699E+00  0.2989479016E+01
           2
 Time step:          47
H  -0.2424832164E+00  0.2785427836E+00  0.1373960308E-01
H   0.2424832164E+00 -0.2785427836E+00  0.2986260397E+01
           2
 Time step:          48
H  -0.2490571928E+00  0.2862354721E+00  0.2081776142E-01
H   0.2490571928E+00 -0.2862354721E+00  0.2979182239E+01
           2
 Time step:          49
H  -0.2513865910E+00  0.3019156056E+00  0.3343765880E-01
H   0.2513865910E+00 -0.3019156056E+00  0.2966562341E+01
           2
 Time step:          50
H  -0.2530050567E+00  0.3201044467E+00  0.4695285394E-01
H   0.2530050567E+00 -0.3201044467E+00  0.2953047146E+01
           2
 Time step:          51
H  -0.2545774074E+00  0.3277692691E+00  0.5638972191E-01
H   0.2545774074E+00 -0.3277692691E+00  0.2943610278E+01
           2
 Time step:          52
H  -0.2565030812E+00  0.3314186264E+00  0.6262066716E-01
H   0.2565030812E+00 -0.3314186264E+00  0.2937379333E+01
           2
 Time step:          53
H  -0.2594931867E+00  0.3341749059E+00  0.6738782049E-01
H   0.2594931867E+00 -0.3341749059E+00  0.2932612180E+01
           2
 Time step:          54
H  -0.2652980901E+00  0.3369246088E+00  0.7169874732E-01
H   0.2652980901E+00 -0.3369246088E+00  0.2928301253E+01
           2
 Time step:          55
H  -0.2762733471E+00  0.3402717539E+00  0.7620863441E-01
H   0.2762733471E+00 -0.3402717539E+00  0.2923791366E+01
           2
 Time step:          56
H  -0.2894031355E+00  0.3452486621E+00  0.8165750492E-01
H   0.2894031355E+00 -0.3452486621E+00  0.2918342495E+01
           2
 Time step:          57
H  -0.3001850878E+00  0.3544827164E+00  0.8941990682E-01
H   0.3001850878E+00 -0.3544827164E+00  0.2910580093E+01
           2
 Time step:          58
H  -0.3085454787E+00  0.3737906859E+00  0.1021194457E+00
H   0.3085454787E+00 -0.3737906859E+00  0.2897880554E+01
           2
 Time step:          59
H  -0.3153846621E+00  0.3898142812E+00  0.1188476691E+00
H   0.3153846621E+00 -0.3898142812E+00  0.2881152331E+01
           2
 Time step:          60
H  -0.3214483799E+00  0.3941833572E+00  0.1282198066E+00
H   0.3214483799E+00 -0.3941833572E+00  0.2871780193E+01
           2
 Time step:          61
H  -0.3273036262E+00  0.3966621626E+00  0.1308942536E+00
H   0.3273036262E+00 -0.3966621626E+00  0.2869105746E+01
           2
 Time step:          62
H  -0.3335003295E+00  0.3990374870E+00  0.1317026614E+00
H   0.3335003295E+00 -0.3990374870E+00  0.2868297339E+01
           2
 Time step:          63
H  -0.3411761727E+00  0.4018716736E+00  0.1316928740E+00
H   0.3411761727E+00 -0.4018716736E+00  0.2868307126E+01
           2
 Time step:          64
H  -0.3542015705E+00  0.4058685938E+00  0.1309725212E+00
H   0.3542015705E+00 -0.4058685938E+00  0.2869027479E+01
           2
 Time step:          65
H  -0.3718751788E+00  0.4125191946E+00  0.1293175538E+00
H   0.3718751788E+00 -0.4125191946E+00  0.2870682446E+01
           2
 Time step:          66
H  -0.3818026226E+00  0.4243657302E+00  0.1258570540E+00
H   0.3818026226E+00 -0.4243657302E+00  0.2874142946E+01
           2
 Time step:          67
H  -0.3863443395E+00  0.4397934079E+00  0.1183337637E+00
H   0.3863443395E+00 -0.4397934079E+00  0.2881666236E+01
           2
 Time step:          68
H  -0.3892560434E+00  0.4497538246E+00  0.1067385685E+00
H   0.3892560434E+00 -0.4497538246E+00  0.2893261432E+01
           2
 Time step:          69
H  -0.3917257727E+00  0.4532497314E+00  0.9574627273E-01
H   0.3917257727E+00 -0.4532497314E+00  0.2904253727E+01
           2
 Time step:          70
H  -0.3942643842E+00  0.4546479734E+00  0.8709055473E-01
H   0.3942643842E+00 -0.4546479734E+00  0.2912909445E+01
           2
 Time step:          71
H  -0.3974455839E+00  0.4555097930E+00  0.8055404855E-01
H   0.3974455839E+00 -0.4555097930E+00  0.2919445951E+01
           2
 Time step:          72
H  -0.4026606895E+00  0.4561252015E+00  0.7549205482E-01
H   0.4026606895E+00 -0.4561252015E+00  0.2924507945E+01
           2
 Time step:          73
H  -0.4136162795E+00  0.4565473546E+00  0.7130740701E-01
H   0.4136162795E+00 -0.4565473546E+00  0.2928692593E+01
           2
 Time step:          74
H  -0.4304862351E+00  0.4567408416E+00  0.6723943471E-01
H   0.4304862351E+00 -0.4567408416E+00  0.2932760565E+01
           2
 Time step:          75
H  -0.4422689456E+00  0.4565275215E+00  0.6093430634E-01
H   0.4422689456E+00 -0.4565275215E+00  0.2939065694E+01
           2
 Time step:          76
H  -0.4486290860E+00  0.4555321304E+00  0.4583549572E-01
H   0.4486290860E+00 -0.4555321304E+00  0.2954164504E+01
           2
 Time step:          77
H  -0.4527434445E+00  0.4534777049E+00  0.2901396121E-01
H   0.4527434445E+00 -0.4534777049E+00  0.2970986039E+01
           2
 Time step:          78
H  -0.4559349989E+00  0.4500603785E+00  0.2041516531E-01
H   0.4559349989E+00 -0.4500603785E+00  0.2979584835E+01
           2
 Time step:          79
H  -0.4587797414E+00  0.4445277813E+00  0.1619487086E-01
H   0.4587797414E+00 -0.4445277813E+00  0.2983805129E+01
           2
 Time step:          80
H  -0.4617371219E+00  0.4357147300E+00  0.1438143376E-01
H   0.4617371219E+00 -0.4357147300E+00  0.2985618566E+01
           2
 Time step:          81
H  -0.4654963193E+00  0.4235255065E+00  0.1475252307E-01
H   0.4654963193E+00 -0.4235255065E+00  0.2985247477E+01
           2
 Time step:          82
H  -0.4712503637E+00  0.4116398455E+00  0.1780996306E-01
H   0.4712503637E+00 -0.4116398455E+00  0.2982190037E+01
           2
 Time step:          83
H  -0.4799619233E+00  0.4042011124E+00  0.2507602880E-01
H   0.4799619233E+00 -0.4042011124E+00  0.2974923971E+01
           2
 Time step:          84
H  -0.4904274488E+00  0.4009227971E+00  0.3829149301E-01
H   0.4904274488E+00 -0.4009227971E+00  0.2961708507E+01
           2
 Time step:          85
H  -0.5002593474E+00  0.3992076502E+00  0.5262745316E-01
H   0.5002593474E+00 -0.3992076502E+00  0.2947372547E+01
           2
 Time step:          86
H  -0.5083688041E+00  0.3976170123E+00  0.6129791822E-01
H   0.5083688041E+00 -0.3976170123E+00  0.2938702082E+01
           2
 Time step:          87
H  -0.5149375308E+00  0.3956012350E+00  0.6644485611E-01
H   0.5149375308E+00 -0.3956012350E+00  0.2933555144E+01
           2
 Time step:          88
H  -0.5205163166E+00  0.3927784141E+00  0.7090742942E-01
H   0.5205163166E+00 -0.3927784141E+00  0.2929092571E+01
           2
 Time step:          89
H  -0.5257332253E+00  0.3885164163E+00  0.7599914835E-01
H   0.5257332253E+00 -0.3885164163E+00  0.2924000852E+01
           2
 Time step:          90
H  -0.5319824800E+00  0.3815990769E+00  0.8240677000E-01
H   0.5319824800E+00 -0.3815990769E+00  0.2917593230E+01
           2
 Time step:          91
H  -0.5446131990E+00  0.3705871659E+00  0.9037748857E-01
H   0.5446131990E+00 -0.3705871659E+00  0.2909622511E+01
           2
 Time step:          92
H  -0.5653725594E+00  0.3571216251E+00  0.9952627569E-01
H   0.5653725594E+00 -0.3571216251E+00  0.2900473724E+01
           2
 Time step:          93
H  -0.5756002511E+00  0.3471706206E+00  0.1090406620E+00
H   0.5756002511E+00 -0.3471706206E+00  0.2890959338E+01
           2
 Time step:          94
H  -0.5799015982E+00  0.3439826984E+00  0.1182534803E+00
H   0.5799015982E+00 -0.3439826984E+00  0.2881746520E+01
           2
 Time step:          95
H  -0.5826982396E+00  0.3429506523E+00  0.1268969828E+00
H   0.5826982396E+00 -0.3429506523E+00  0.2873103017E+01
           2
 Time step:          96
H  -0.5851293994E+00  0.3420803095E+00  0.1349354219E+00
H   0.5851293994E+00 -0.3420803095E+00  0.2865064578E+01
           2
 Time step:          97
H  -0.5877711256E+00  0.3410857332E+00  0.1424465756E+00
H   0.5877711256E+00 -0.3410857332E+00  0.2857553424E+01
           2
 Time step:          98
H  -0.5914302200E+00  0.3397260392E+00  0.1495817220E+00
H   0.5914302200E+00 -0.3397260392E+00  0.2850418278E+01
           2
 Time step:          99
H  -0.5979810010E+00  0.3374132173E+00  0.1565311794E+00
H   0.5979810010E+00 -0.3374132173E+00  0.2843468821E+01
           2
 Time step:         100
H  -0.6106829544E+00  0.3325554143E+00  0.1634798101E+00
H   0.6106829544E+00 -0.3325554143E+00  0.2836520190E+01
           2
 Time step:         101
H  -0.6260070698E+00  0.3230259820E+00  0.1706544121E+00
H   0.6260070698E+00 -0.3230259820E+00  0.2829345588E+01
           2
 Time step:         102
H  -0.6360980892E+00  0.3107088825E+00  0.1784323877E+00
H   0.6360980892E+00 -0.3107088825E+00  0.2821567612E+01
           2
 Time step:         103
H  -0.6421543497E+00  0.2998376746E+00  0.1874064183E+00
H   0.6421543497E+00 -0.2998376746E+00  0.2812593582E+01
           2
 Time step:         104
H  -0.6466011590E+00  0.2914035051E+00  0.1979459712E+00
H   0.6466011590E+00 -0.2914035051E+00  0.2802054029E+01
           2
 Time step:         105
H  -0.6506746583E+00  0.2846630658E+00  0.2088109415E+00
H   0.6506746583E+00 -0.2846630658E+00  0.2791189058E+01
           2
 Time step:         106
H  -0.6551919604E+00  0.2788266972E+00  0.2172720900E+00
H   0.6551919604E+00 -0.2788266972E+00  0.2782727910E+01
           2
 Time step:         107
H  -0.6612647957E+00  0.2732644899E+00  0.2221989956E+00
H   0.6612647957E+00 -0.2732644899E+00  0.2777801004E+01
           2
 Time step:         108
H  -0.6717143792E+00  0.2672496014E+00  0.2245256778E+00
H   0.6717143792E+00 -0.2672496014E+00  0.2775474322E+01
           2
 Time step:         109
H  -0.6904317833E+00  0.2585322311E+00  0.2254172155E+00
H   0.6904317833E+00 -0.2585322311E+00  0.2774582785E+01
           2
 Time step:         110
H  -0.7037795571E+00  0.2404685611E+00  0.2255857767E+00
H   0.7037795571E+00 -0.2404685611E+00  0.2774414223E+01
           2
 Time step:         111
H  -0.7082982474E+00  0.2232137343E+00  0.2253166270E+00
H   0.7082982474E+00 -0.2232137343E+00  0.2774683373E+01
           2
 Time step:         112
H  -0.7109042845E+00  0.2173806052E+00  0.2246894583E+00
H   0.7109042845E+00 -0.2173806052E+00  0.2775310542E+01
           2
 Time step:         113
H  -0.7133162681E+00  0.2144363614E+00  0.2237581135E+00
H   0.7133162681E+00 -0.2144363614E+00  0.2776241887E+01
           2
 Time step:         114
H  -0.7161175323E+00  0.2120425649E+00  0.2224646198E+00
H   0.7161175323E+00 -0.2120425649E+00  0.2777535380E+01
           2
 Time step:         115
H  -0.7200429613E+00  0.2095585770E+00  0.2204675821E+00
H   0.7200429613E+00 -0.2095585770E+00  0.2779532418E+01
           2
 Time step:         116
H  -0.7266524401E+00  0.2064039535E+00  0.2166736380E+00
H   0.7266524401E+00 -0.2064039535E+00  0.2783326362E+01
           2
 Time step:         117
H  -0.7383579568E+00  0.2014185073E+00  0.2079913319E+00
H   0.7383579568E+00 -0.2014185073E+00  0.2792008668E+01
           2
 Time step:         118
H  -0.7532077353E+00  0.1920985695E+00  0.1928147018E+00
H   0.7532077353E+00 -0.1920985695E+00  0.2807185298E+01
           2
 Time step:         119
H  -0.7633722276E+00  0.1773698118E+00  0.1797101118E+00
H   0.7633722276E+00 -0.1773698118E+00  0.2820289888E+01
           2
 Time step:         120
H  -0.7679753628E+00  0.1645029464E+00  0.1720857433E+00
H   0.7679753628E+00 -0.1645029464E+00  0.2827914257E+01
           2
 Time step:         121
H  -0.7698435716E+00  0.1569009237E+00  0.1674057293E+00
H   0.7698435716E+00 -0.1569009237E+00  0.2832594271E+01
           2
 Time step:         122
H  -0.7705946737E+00  0.1521408324E+00  0.1640597895E+00
H   0.7705946737E+00 -0.1521408324E+00  0.2835940211E+01
           2
 Time step:         123
H  -0.7707373750E+00  0.1484281834E+00  0.1614007532E+00
H   0.7707373750E+00 -0.1484281834E+00  0.2838599247E+01
           2
 Time step:         124
H  -0.7703230283E+00  0.1448800434E+00  0.1591872160E+00
H   0.7703230283E+00 -0.1448800434E+00  0.2840812784E+01
           2
 Time step:         125
H  -0.7690833968E+00  0.1407749097E+00  0.1573799482E+00
H   0.7690833968E+00 -0.1407749097E+00  0.2842620052E+01
           2
 Time step:         126
H  -0.7658518871E+00  0.1345508183E+00  0.1560648109E+00
H   0.7658518871E+00 -0.1345508183E+00  0.2843935189E+01
           2
 Time step:         127
H  -0.7571564866E+00  0.1207234849E+00  0.1553871922E+00
H   0.7571564866E+00 -0.1207234849E+00  0.2844612808E+01
           2
 Time step:         128
H  -0.7425372873E+00  0.9975715088E-01  0.1554932843E+00
H   0.7425372873E+00 -0.9975715088E-01  0.2844506716E+01
           2
 Time step:         129
H  -0.7298074312E+00  0.9101253228E-01  0.1565649310E+00
H   0.7298074312E+00 -0.9101253228E-01  0.2843435069E+01
           2
 Time step:         130
H  -0.7211421065E+00  0.8717791505E-01  0.1589964173E+00
H   0.7211421065E+00 -0.8717791505E-01  0.2841003583E+01
           2
 Time step:         131
H  -0.7147025788E+00  0.8402843321E-01  0.1634318178E+00
H   0.7147025788E+00 -0.8402843321E-01  0.2836568182E+01
           2
 Time step:         132
H  -0.7091616037E+00  0.8068376319E-01  0.1702512254E+00
H   0.7091616037E+00 -0.8068376319E-01  0.2829748775E+01
           2
 Time step:         133
H  -0.7037812109E+00  0.7649872597E-01  0.1784220200E+00
H   0.7037812109E+00 -0.7649872597E-01  0.2821577980E+01
           2
 Time step:         134
H  -0.6980061733E+00  0.7031704578E-01  0.1867631378E+00
H   0.6980061733E+00 -0.7031704578E-01  0.2813236862E+01
           2
 Time step:         135
H  -0.6910271761E+00  0.6018946730E-01  0.1947035006E+00
H   0.6910271761E+00 -0.6018946730E-01  0.2805296500E+01
           2
 Time step:         136
H  -0.6804265422E+00  0.4602570785E-01  0.2019161989E+00
H   0.6804265422E+00 -0.4602570785E-01  0.2798083801E+01
           2
 Time step:         137
H  -0.6621084182E+00  0.3418834206E-01  0.2083297339E+00
H   0.6621084182E+00 -0.3418834206E-01  0.2791670266E+01
           2
 Time step:         138
H  -0.6481591644E+00  0.2894929426E-01  0.2141427964E+00
H   0.6481591644E+00 -0.2894929426E-01  0.2785857204E+01
           2
 Time step:         139
H  -0.6437152421E+00  0.2736417498E-01  0.2202601351E+00
H   0.6437152421E+00 -0.2736417498E-01  0.2779739865E+01
           2
 Time step:         140
H  -0.6419487333E+00  0.2649948057E-01  0.2294105829E+00
H   0.6419487333E+00 -0.2649948057E-01  0.2770589417E+01
           2
 Time step:         141
H  -0.6411697578E+00  0.2571253630E-01  0.2452564355E+00
H   0.6411697578E+00 -0.2571253630E-01  0.2754743564E+01
           2
 Time step:         142
H  -0.6412445644E+00  0.2482866258E-01  0.2598364301E+00
H   0.6412445644E+00 -0.2482866258E-01  0.2740163570E+01
           2
 Time step:         143
H  -0.6425199059E+00  0.2362137493E-01  0.2661298286E+00
H   0.6425199059E+00 -0.2362137493E-01  0.2733870172E+01
           2
 Time step:         144
H  -0.6461062046E+00  0.2156534083E-01  0.2678641451E+00
H   0.6461062046E+00 -0.2156534083E-01  0.2732135855E+01
           2
 Time step:         145
H  -0.6547973881E+00  0.1752117778E-01  0.2673382226E+00
H   0.6547973881E+00 -0.1752117778E-01  0.2732661778E+01
           2
 Time step:         146
H  -0.6689247067E+00  0.1021553237E-01  0.2649770830E+00
H   0.6689247067E+00 -0.1021553237E-01  0.2735022917E+01
           2
 Time step:         147
H  -0.6817452765E+00  0.2287924535E-03  0.2604406231E+00
H   0.6817452765E+00 -0.2287924535E-03  0.2739559377E+01
           2
 Time step:         148
H  -0.6913391723E+00 -0.1011616724E-01  0.2531660976E+00
H   0.6913391723E+00  0.1011616724E-01  0.2746833903E+01
           2
 Time step:         149
H  -0.6989553449E+00 -0.1925222808E-01  0.2431862140E+00
H   0.6989553449E+00  0.1925222808E-01  0.2756813787E+01
           2
 Time step:         150
H  -0.7056009593E+00 -0.2696795011E-01  0.2322676649E+00
H   0.7056009593E+00  0.2696795011E-01  0.2767732336E+01
           2
 Time step:         151
H  -0.7118499122E+00 -0.3367506427E-01  0.2230741607E+00
H   0.7118499122E+00  0.3367506427E-01  0.2776925840E+01
           2
 Time step:         152
H  -0.7180734238E+00 -0.3994914437E-01  0.2168410218E+00
H   0.7180734238E+00  0.3994914437E-01  0.2783158978E+01
           2
 Time step:         153
H  -0.7246166585E+00 -0.4631628134E-01  0.2132351009E+00
H   0.7246166585E+00  0.4631628134E-01  0.2786764898E+01
           2
 Time step:         154
H  -0.7322507651E+00 -0.5314272773E-01  0.2112553517E+00
H   0.7322507651E+00  0.5314272773E-01  0.2788744647E+01
           2
 Time step:         155
H  -0.7429658750E+00 -0.6068845614E-01  0.2100079592E+00
H   0.7429658750E+00  0.6068845614E-01  0.2789992039E+01
           2
 Time step:         156
H  -0.7569396767E+00 -0.6909049697E-01  0.2090429436E+00
H   0.7569396767E+00  0.6909049697E-01  0.2790957055E+01
           2
 Time step:         157
H  -0.7681419819E+00 -0.7823047501E-01  0.2082092745E+00
H   0.7681419819E+00  0.7823047501E-01  0.2791790725E+01
           2
 Time step:         158
H  -0.7738237419E+00 -0.8747726122E-01  0.2074294245E+00
H   0.7738237419E+00  0.8747726122E-01  0.2792570576E+01
           2
 Time step:         159
H  -0.7765381629E+00 -0.9553761374E-01  0.2064567084E+00
H   0.7765381629E+00  0.9553761374E-01  0.2793543294E+01
           2
 Time step:         160
H  -0.7781370441E+00 -0.1013288572E+00  0.2040341645E+00
H   0.7781370441E+00  0.1013288572E+00  0.2795965847E+01
           2
 Time step:         161
H  -0.7793012422E+00 -0.1049950097E+00  0.1977309304E+00
H   0.7793012422E+00  0.1049950097E+00  0.2802269099E+01
           2
 Time step:         162
H  -0.7802770091E+00 -0.1072822837E+00  0.1882003878E+00
H   0.7802770091E+00  0.1072822837E+00  0.2811799661E+01
           2
 Time step:         163
H  -0.7812740837E+00 -0.1087889716E+00  0.1776002232E+00
H   0.7812740837E+00  0.1087889716E+00  0.2822399831E+01
           2
 Time step:         164
H  -0.7832118257E+00 -0.1098554419E+00  0.1682859799E+00
H   0.7832118257E+00  0.1098554419E+00  0.2831714064E+01
           2
 Time step:         165
H  -0.7883665949E+00 -0.1106680007E+00  0.1613727432E+00
H   0.7883665949E+00  0.1106680007E+00  0.2838627283E+01
           2
 Time step:         166
H  -0.7961823561E+00 -0.1113631017E+00  0.1567522315E+00
H   0.7961823561E+00  0.1113631017E+00  0.2843247777E+01
           2
 Time step:         167
H  -0.8054101104E+00 -0.1121316725E+00  0.1539985452E+00
H   0.8054101104E+00  0.1121316725E+00  0.2846001450E+01
           2
 Time step:         168
H  -0.8148437412E+00 -0.1133807876E+00  0.1527453095E+00
H   0.8148437412E+00  0.1133807876E+00  0.2847254674E+01
           2
 Time step:         169
H  -0.8233068147E+00 -0.1160612758E+00  0.1528371633E+00
H   0.8233068147E+00  0.1160612758E+00  0.2847162808E+01
           2
 Time step:         170
H  -0.8302023933E+00 -0.1215277554E+00  0.1549200631E+00
H   0.8302023933E+00  0.1215277554E+00  0.2845079886E+01
           2
 Time step:         171
H  -0.8355209315E+00 -0.1303546894E+00  0.1617235010E+00
H   0.8355209315E+00  0.1303546894E+00  0.2838276398E+01
           2
 Time step:         172
H  -0.8396559320E+00 -0.1413786683E+00  0.1765627011E+00
H   0.8396559320E+00  0.1413786683E+00  0.2823437148E+01
           2
 Time step:         173
H  -0.8434064849E+00 -0.1518909892E+00  0.1916392346E+00
H   0.8434064849E+00  0.1518909892E+00  0.2808360650E+01
           2
 Time step:         174
H  -0.8480380908E+00 -0.1600103524E+00  0.2006877989E+00
H   0.8480380908E+00  0.1600103524E+00  0.2799312122E+01
           2
 Time step:         175
H  -0.8559420352E+00 -0.1656194811E+00  0.2069609366E+00
H   0.8559420352E+00  0.1656194811E+00  0.2793038998E+01
           2
 Time step:         176
H  -0.8696172352E+00 -0.1689795229E+00  0.2128851594E+00
H   0.8696172352E+00  0.1689795229E+00  0.2787114778E+01
           2
 Time step:         177
H  -0.8838106137E+00 -0.1701391686E+00  0.2195457940E+00
H   0.8838106137E+00  0.1701391686E+00  0.2780454141E+01
           2
 Time step:         178
H  -0.8921783439E+00 -0.1704031155E+00  0.2273770305E+00
H   0.8921783439E+00  0.1704031155E+00  0.2772622899E+01
           2
 Time step:         179
H  -0.8962550435E+00 -0.1704455246E+00  0.2362212399E+00
H   0.8962550435E+00  0.1704455246E+00  0.2763778685E+01
           2
 Time step:         180
H  -0.8982780533E+00 -0.1703550116E+00  0.2454693763E+00
H   0.8982780533E+00  0.1703550116E+00  0.2754530546E+01
           2
 Time step:         181
H  -0.8992685968E+00 -0.1701215355E+00  0.2547009886E+00
H   0.8992685968E+00  0.1701215355E+00  0.2745298932E+01
           2
 Time step:         182
H  -0.8996403914E+00 -0.1696424741E+00  0.2637563361E+00
H   0.8996403914E+00  0.1696424741E+00  0.2736243586E+01
           2
 Time step:         183
H  -0.8995643798E+00 -0.1685651735E+00  0.2723192608E+00
H   0.8995643798E+00  0.1685651735E+00  0.2727680667E+01
           2
 Time step:         184
H  -0.8987978145E+00 -0.1660571071E+00  0.2800932579E+00
H   0.8987978145E+00  0.1660571071E+00  0.2719906678E+01
           2
 Time step:         185
H  -0.8958052288E+00 -0.1611687205E+00  0.2869718550E+00
H   0.8958052288E+00  0.1611687205E+00  0.2713028087E+01
           2
 Time step:         186
H  -0.8892235748E+00 -0.1534666742E+00  0.2929802583E+00
H   0.8892235748E+00  0.1534666742E+00  0.2707019688E+01
           2
 Time step:         187
H  -0.8793786593E+00 -0.1432381263E+00  0.2981444626E+00
H   0.8793786593E+00  0.1432381263E+00  0.2701855488E+01
           2
 Time step:         188
H  -0.8681330159E+00 -0.1322410602E+00  0.3024325829E+00
H   0.8681330159E+00  0.1322410602E+00  0.2697567376E+01
           2
 Time step:         189
H  -0.8583895781E+00 -0.1230183056E+00  0.3059354938E+00
H   0.8583895781E+00  0.1230183056E+00  0.2694064479E+01
           2
 Time step:         190
H  -0.8515088342E+00 -0.1164579031E+00  0.3090437607E+00
H   0.8515088342E+00  0.1164579031E+00  0.2690956233E+01
           2
 Time step:         191
H  -0.8471968893E+00 -0.1119450211E+00  0.3123673113E+00
H   0.8471968893E+00  0.1119450211E+00  0.2687632719E+01
           2
 Time step:         192
H  -0.8448720697E+00 -0.1086845753E+00  0.3172336833E+00
H   0.8448720697E+00  0.1086845753E+00  0.2682766415E+01
           2
 Time step:         193
H  -0.8440861067E+00 -0.1061222804E+00  0.3268386715E+00
H   0.8440861067E+00  0.1061222804E+00  0.2673161534E+01
           2
 Time step:         194
H  -0.8442135542E+00 -0.1038609817E+00  0.3420380578E+00
H   0.8442135542E+00  0.1038609817E+00  0.2657962191E+01
           2
 Time step:         195
H  -0.8448416911E+00 -0.1014059004E+00  0.3543605921E+00
H   0.8448416911E+00  0.1014059004E+00  0.2645639584E+01
           2
 Time step:         196
H  -0.8460942882E+00 -0.9767567373E-01  0.3612861565E+00
H   0.8460942882E+00  0.9767567373E-01  0.2638713930E+01
           2
 Time step:         197
H  -0.8483611104E+00 -0.9023678783E-01  0.3651966199E+00
H   0.8483611104E+00  0.9023678783E-01  0.2634803381E+01
           2
 Time step:         198
H  -0.8520733391E+00 -0.7668385440E-01  0.3674932362E+00
H   0.8520733391E+00  0.7668385440E-01  0.2632506677E+01
           2
 Time step:         199
H  -0.8580127314E+00 -0.6240339521E-01  0.3686431176E+00