           2
Time step:                   1 Sim. Time [au]          20.00
H    -0.25901253E-03    0.74252127E-02    0.67928425E-02
H     0.25901253E-03   -0.74252127E-02    0.29932072E+01
           2
Time step:                   2 Sim. Time [au]          40.00
H    -0.40496326E-03    0.90719466E-02    0.14353535E-01
H     0.40496326E-03   -0.90719466E-02    0.29856465E+01
           2
Time step:                   3 Sim. Time [au]          60.00
H    -0.48883052E-03    0.98854548E-02    0.22425771E-01
H     0.48883052E-03   -0.98854548E-02    0.29775742E+01
           2
Time step:                   4 Sim. Time [au]          80.00
H    -0.54710424E-03    0.10625180E-01    0.30685062E-01
H     0.54710424E-03   -0.10625180E-01    0.29693149E+01
           2
Time step:                   5 Sim. Time [au]         100.00
H    -0.59682283E-03    0.11482622E-01    0.38790481E-01
H     0.59682283E-03   -0.11482622E-01    0.29612095E+01
           2
Time step:                   6 Sim. Time [au]         120.00
H    -0.65004856E-03    0.12735315E-01    0.46565744E-01
H     0.65004856E-03   -0.12735315E-01    0.29534343E+01
           2
Time step:                   7 Sim. Time [au]         140.00
H    -0.73188390E-03    0.15091657E-01    0.54235604E-01
H     0.73188390E-03   -0.15091657E-01    0.29457644E+01
           2
Time step:                   8 Sim. Time [au]         160.00
H    -0.94842386E-03    0.20092605E-01    0.62475848E-01
H     0.94842386E-03   -0.20092605E-01    0.29375242E+01
           2
Time step:                   9 Sim. Time [au]         180.00
H    -0.15360733E-02    0.28733425E-01    0.71781552E-01
H     0.15360733E-02   -0.28733425E-01    0.29282184E+01
           2
Time step:                  10 Sim. Time [au]         200.00
H    -0.26014799E-02    0.39335739E-01    0.81828715E-01
H     0.26014799E-02   -0.39335739E-01    0.29181713E+01
           2
Time step:                  11 Sim. Time [au]         220.00
H    -0.43648644E-02    0.49439035E-01    0.91464037E-01
H     0.43648644E-02   -0.49439035E-01    0.29085360E+01
           2
Time step:                  12 Sim. Time [au]         240.00
H    -0.75119606E-02    0.57838832E-01    0.99546518E-01
H     0.75119606E-02   -0.57838832E-01    0.29004535E+01
           2
Time step:                  13 Sim. Time [au]         260.00
H    -0.13394452E-01    0.64562868E-01    0.10576888E+00
H     0.13394452E-01   -0.64562868E-01    0.28942311E+01
           2
Time step:                  14 Sim. Time [au]         280.00
H    -0.23314299E-01    0.70086419E-01    0.11070079E+00
H     0.23314299E-01   -0.70086419E-01    0.28892992E+01
           2
Time step:                  15 Sim. Time [au]         300.00
H    -0.35782751E-01    0.74882274E-01    0.11555207E+00
H     0.35782751E-01   -0.74882274E-01    0.28844479E+01
           2
Time step:                  16 Sim. Time [au]         320.00
H    -0.46571070E-01    0.79294816E-01    0.12224022E+00
H     0.46571070E-01   -0.79294816E-01    0.28777598E+01
           2
Time step:                  17 Sim. Time [au]         340.00
H    -0.54028460E-01    0.83548207E-01    0.13230616E+00
H     0.54028460E-01   -0.83548207E-01    0.28676938E+01
           2
Time step:                  18 Sim. Time [au]         360.00
H    -0.58985613E-01    0.88199621E-01    0.14363404E+00
H     0.58985613E-01   -0.88199621E-01    0.28563660E+01
           2
Time step:                  19 Sim. Time [au]         380.00
H    -0.62266495E-01    0.94340327E-01    0.15257925E+00
H     0.62266495E-01   -0.94340327E-01    0.28474207E+01
           2
Time step:                  20 Sim. Time [au]         400.00
H    -0.64208429E-01    0.10416138E+00    0.15808968E+00
H     0.64208429E-01   -0.10416138E+00    0.28419103E+01
           2
Time step:                  21 Sim. Time [au]         420.00
H    -0.65186684E-01    0.11978043E+00    0.16060499E+00
H     0.65186684E-01   -0.11978043E+00    0.28393950E+01
           2
Time step:                  22 Sim. Time [au]         440.00
H    -0.65750791E-01    0.13342129E+00    0.16044250E+00
H     0.65750791E-01   -0.13342129E+00    0.28395575E+01
           2
Time step:                  23 Sim. Time [au]         460.00
H    -0.66229269E-01    0.13908647E+00    0.15050305E+00
H     0.66229269E-01   -0.13908647E+00    0.28494969E+01
           2
Time step:                  24 Sim. Time [au]         480.00
H    -0.66767083E-01    0.14174956E+00    0.12960627E+00
H     0.66767083E-01   -0.14174956E+00    0.28703937E+01
           2
Time step:                  25 Sim. Time [au]         500.00
H    -0.67472784E-01    0.14385413E+00    0.11721307E+00
H     0.67472784E-01   -0.14385413E+00    0.28827869E+01
           2
Time step:                  26 Sim. Time [au]         520.00
H    -0.68586691E-01    0.14611504E+00    0.10957710E+00
H     0.68586691E-01   -0.14611504E+00    0.28904229E+01
           2
Time step:                  27 Sim. Time [au]         540.00
H    -0.71081467E-01    0.14902240E+00    0.10272465E+00
H     0.71081467E-01   -0.14902240E+00    0.28972754E+01
           2
Time step:                  28 Sim. Time [au]         560.00
H    -0.78371631E-01    0.15337430E+00    0.95508096E-01
H     0.78371631E-01   -0.15337430E+00    0.29044919E+01
           2
Time step:                  29 Sim. Time [au]         580.00
H    -0.91216068E-01    0.16082218E+00    0.87729423E-01
H     0.91216068E-01   -0.16082218E+00    0.29122706E+01
           2
Time step:                  30 Sim. Time [au]         600.00
H    -0.10365027E+00    0.17342053E+00    0.79728372E-01
H     0.10365027E+00   -0.17342053E+00    0.29202716E+01
           2
Time step:                  31 Sim. Time [au]         620.00
H    -0.11264323E+00    0.18789143E+00    0.72292300E-01
H     0.11264323E+00   -0.18789143E+00    0.29277077E+01
           2
Time step:                  32 Sim. Time [au]         640.00
H    -0.11900432E+00    0.19679998E+00    0.66689460E-01
H     0.11900432E+00   -0.19679998E+00    0.29333105E+01
           2
Time step:                  33 Sim. Time [au]         660.00
H    -0.12397079E+00    0.20060116E+00    0.63721419E-01
H     0.12397079E+00   -0.20060116E+00    0.29362786E+01
           2
Time step:                  34 Sim. Time [au]         680.00
H    -0.12835722E+00    0.20258749E+00    0.61923731E-01
H     0.12835722E+00   -0.20258749E+00    0.29380763E+01
           2
Time step:                  35 Sim. Time [au]         700.00
H    -0.13278140E+00    0.20415858E+00    0.60081666E-01
H     0.13278140E+00   -0.20415858E+00    0.29399183E+01
           2
Time step:                  36 Sim. Time [au]         720.00
H    -0.13871602E+00    0.20581724E+00    0.57670703E-01
H     0.13871602E+00   -0.20581724E+00    0.29423293E+01
           2
Time step:                  37 Sim. Time [au]         740.00
H    -0.15190084E+00    0.20793481E+00    0.54217815E-01
H     0.15190084E+00   -0.20793481E+00    0.29457822E+01
           2
Time step:                  38 Sim. Time [au]         760.00
H    -0.17172204E+00    0.21109067E+00    0.48824797E-01
H     0.17172204E+00   -0.21109067E+00    0.29511752E+01
           2
Time step:                  39 Sim. Time [au]         780.00
H    -0.18156558E+00    0.21637012E+00    0.39555141E-01
H     0.18156558E+00   -0.21637012E+00    0.29604449E+01
           2
Time step:                  40 Sim. Time [au]         800.00
H    -0.18619749E+00    0.22500005E+00    0.24829594E-01
H     0.18619749E+00   -0.22500005E+00    0.29751704E+01
           2
Time step:                  41 Sim. Time [au]         820.00
H    -0.18954200E+00    0.23617517E+00    0.11565343E-01
H     0.18954200E+00   -0.23617517E+00    0.29884347E+01
           2
Time step:                  42 Sim. Time [au]         840.00
H    -0.19269176E+00    0.24687499E+00    0.90908051E-02
H     0.19269176E+00   -0.24687499E+00    0.29909092E+01
           2
Time step:                  43 Sim. Time [au]         860.00
H    -0.19625774E+00    0.25545209E+00    0.84778312E-02
H     0.19625774E+00   -0.25545209E+00    0.29915222E+01
           2
Time step:                  44 Sim. Time [au]         880.00
H    -0.20108722E+00    0.26219567E+00    0.84715255E-02
H     0.20108722E+00   -0.26219567E+00    0.29915285E+01
           2
Time step:                  45 Sim. Time [au]         900.00
H    -0.20905217E+00    0.26785625E+00    0.90568030E-02
H     0.20905217E+00   -0.26785625E+00    0.29909432E+01
           2
Time step:                  46 Sim. Time [au]         920.00
H    -0.22422245E+00    0.27307227E+00    0.10520984E-01
H     0.22422245E+00   -0.27307227E+00    0.29894790E+01
           2
Time step:                  47 Sim. Time [au]         940.00
H    -0.24248322E+00    0.27854278E+00    0.13739603E-01
H     0.24248322E+00   -0.27854278E+00    0.29862604E+01
           2
Time step:                  48 Sim. Time [au]         960.00
H    -0.24905719E+00    0.28623547E+00    0.20817761E-01
H     0.24905719E+00   -0.28623547E+00    0.29791822E+01
           2
Time step:                  49 Sim. Time [au]         980.00
H    -0.25138659E+00    0.30191561E+00    0.33437659E-01
H     0.25138659E+00   -0.30191561E+00    0.29665623E+01
           2
Time step:                  50 Sim. Time [au]        1000.00
H    -0.25300506E+00    0.32010445E+00    0.46952854E-01
H     0.25300506E+00   -0.32010445E+00    0.29530471E+01
           2
Time step:                  51 Sim. Time [au]        1020.00
H    -0.25457741E+00    0.32776927E+00    0.56389722E-01
H     0.25457741E+00   -0.32776927E+00    0.29436103E+01
           2
Time step:                  52 Sim. Time [au]        1040.00
H    -0.25650308E+00    0.33141863E+00    0.62620667E-01
H     0.25650308E+00   -0.33141863E+00    0.29373793E+01
           2
Time step:                  53 Sim. Time [au]        1060.00
H    -0.25949319E+00    0.33417491E+00    0.67387820E-01
H     0.25949319E+00   -0.33417491E+00    0.29326122E+01
           2
Time step:                  54 Sim. Time [au]        1080.00
H    -0.26529809E+00    0.33692461E+00    0.71698747E-01
H     0.26529809E+00   -0.33692461E+00    0.29283013E+01
           2
Time step:                  55 Sim. Time [au]        1100.00
H    -0.27627335E+00    0.34027175E+00    0.76208634E-01
H     0.27627335E+00   -0.34027175E+00    0.29237914E+01
           2
Time step:                  56 Sim. Time [au]        1120.00
H    -0.28940314E+00    0.34524866E+00    0.81657505E-01
H     0.28940314E+00   -0.34524866E+00    0.29183425E+01
           2
Time step:                  57 Sim. Time [au]        1140.00
H    -0.30018509E+00    0.35448272E+00    0.89419907E-01
H     0.30018509E+00   -0.35448272E+00    0.29105801E+01
           2
Time step:                  58 Sim. Time [au]        1160.00
H    -0.30854548E+00    0.37379069E+00    0.10211945E+00
H     0.30854548E+00   -0.37379069E+00    0.28978806E+01
           2
Time step:                  59 Sim. Time [au]        1180.00
H    -0.31538466E+00    0.38981428E+00    0.11884767E+00
H     0.31538466E+00   -0.38981428E+00    0.28811523E+01
           2
Time step:                  60 Sim. Time [au]        1200.00
H    -0.32144838E+00    0.39418336E+00    0.12821981E+00
H     0.32144838E+00   -0.39418336E+00    0.28717802E+01
           2
Time step:                  61 Sim. Time [au]        1220.00
H    -0.32730363E+00    0.39666216E+00    0.13089425E+00
H     0.32730363E+00   -0.39666216E+00    0.28691057E+01
           2
Time step:                  62 Sim. Time [au]        1240.00
H    -0.33350033E+00    0.39903749E+00    0.13170266E+00
H     0.33350033E+00   -0.39903749E+00    0.28682973E+01
           2
Time step:                  63 Sim. Time [au]        1260.00
H    -0.34117617E+00    0.40187167E+00    0.13169287E+00
H     0.34117617E+00   -0.40187167E+00    0.28683071E+01
           2
Time step:                  64 Sim. Time [au]        1280.00
H    -0.35420157E+00    0.40586859E+00    0.13097252E+00
H     0.35420157E+00   -0.40586859E+00    0.28690275E+01
           2
Time step:                  65 Sim. Time [au]        1300.00
H    -0.37187518E+00    0.41251919E+00    0.12931755E+00
H     0.37187518E+00   -0.41251919E+00    0.28706824E+01
           2
Time step:                  66 Sim. Time [au]        1320.00
H    -0.38180262E+00    0.42436573E+00    0.12585705E+00
H     0.38180262E+00   -0.42436573E+00    0.28741429E+01
           2
Time step:                  67 Sim. Time [au]        1340.00
H    -0.38634434E+00    0.43979341E+00    0.11833376E+00
H     0.38634434E+00   -0.43979341E+00    0.28816662E+01
           2
Time step:                  68 Sim. Time [au]        1360.00
H    -0.38925604E+00    0.44975382E+00    0.10673857E+00
H     0.38925604E+00   -0.44975382E+00    0.28932614E+01
           2
Time step:                  69 Sim. Time [au]        1380.00
H    -0.39172577E+00    0.45324973E+00    0.95746273E-01
H     0.39172577E+00   -0.45324973E+00    0.29042537E+01
           2
Time step:                  70 Sim. Time [au]        1400.00
H    -0.39426438E+00    0.45464797E+00    0.87090555E-01
H     0.39426438E+00   -0.45464797E+00    0.29129094E+01
           2
Time step:                  71 Sim. Time [au]        1420.00
H    -0.39744558E+00    0.45550979E+00    0.80554049E-01
H     0.39744558E+00   -0.45550979E+00    0.29194460E+01
           2
Time step:                  72 Sim. Time [au]        1440.00
H    -0.40266069E+00    0.45612520E+00    0.75492055E-01
H     0.40266069E+00   -0.45612520E+00    0.29245079E+01
           2
Time step:                  73 Sim. Time [au]        1460.00
H    -0.41361628E+00    0.45654735E+00    0.71307407E-01
H     0.41361628E+00   -0.45654735E+00    0.29286926E+01
           2
Time step:                  74 Sim. Time [au]        1480.00
H    -0.43048624E+00    0.45674084E+00    0.67239435E-01
H     0.43048624E+00   -0.45674084E+00    0.29327606E+01
           2
Time step:                  75 Sim. Time [au]        1500.00
H    -0.44226895E+00    0.45652752E+00    0.60934306E-01
H     0.44226895E+00   -0.45652752E+00    0.29390657E+01
           2
Time step:                  76 Sim. Time [au]        1520.00
H    -0.44862909E+00    0.45553213E+00    0.45835496E-01
H     0.44862909E+00   -0.45553213E+00    0.29541645E+01
           2
Time step:                  77 Sim. Time [au]        1540.00
H    -0.45274344E+00    0.45347770E+00    0.29013961E-01
H     0.45274344E+00   -0.45347770E+00    0.29709860E+01
           2
Time step:                  78 Sim. Time [au]        1560.00
H    -0.45593500E+00    0.45006038E+00    0.20415165E-01
H     0.45593500E+00   -0.45006038E+00    0.29795848E+01
           2
Time step:                  79 Sim. Time [au]        1580.00
H    -0.45877974E+00    0.44452778E+00    0.16194871E-01
H     0.45877974E+00   -0.44452778E+00    0.29838051E+01
           2
Time step:                  80 Sim. Time [au]        1600.00
H    -0.46173712E+00    0.43571473E+00    0.14381434E-01
H     0.46173712E+00   -0.43571473E+00    0.29856186E+01
           2
Time step:                  81 Sim. Time [au]        1620.00
H    -0.46549632E+00    0.42352551E+00    0.14752523E-01
H     0.46549632E+00   -0.42352551E+00    0.29852475E+01
           2
Time step:                  82 Sim. Time [au]        1640.00
H    -0.47125036E+00    0.41163985E+00    0.17809963E-01
H     0.47125036E+00   -0.41163985E+00    0.29821900E+01
           2
Time step:                  83 Sim. Time [au]        1660.00
H    -0.47996192E+00    0.40420111E+00    0.25076029E-01
H     0.47996192E+00   -0.40420111E+00    0.29749240E+01
           2
Time step:                  84 Sim. Time [au]        1680.00
H    -0.49042745E+00    0.40092280E+00    0.38291493E-01
H     0.49042745E+00   -0.40092280E+00    0.29617085E+01
           2
Time step:                  85 Sim. Time [au]        1700.00
H    -0.50025935E+00    0.39920765E+00    0.52627453E-01
H     0.50025935E+00   -0.39920765E+00    0.29473725E+01
           2
Time step:                  86 Sim. Time [au]        1720.00
H    -0.50836880E+00    0.39761701E+00    0.61297918E-01
H     0.50836880E+00   -0.39761701E+00    0.29387021E+01
           2
Time step:                  87 Sim. Time [au]        1740.00
H    -0.51493753E+00    0.39560124E+00    0.66444856E-01
H     0.51493753E+00   -0.39560124E+00    0.29335551E+01
           2
Time step:                  88 Sim. Time [au]        1760.00
H    -0.52051632E+00    0.39277841E+00    0.70907429E-01
H     0.52051632E+00   -0.39277841E+00    0.29290926E+01
           2
Time step:                  89 Sim. Time [au]        1780.00
H    -0.52573323E+00    0.38851642E+00    0.75999148E-01
H     0.52573323E+00   -0.38851642E+00    0.29240009E+01
           2
Time step:                  90 Sim. Time [au]        1800.00
H    -0.53198248E+00    0.38159908E+00    0.82406770E-01
H     0.53198248E+00   -0.38159908E+00    0.29175932E+01
           2
Time step:                  91 Sim. Time [au]        1820.00
H    -0.54461320E+00    0.37058717E+00    0.90377489E-01
H     0.54461320E+00   -0.37058717E+00    0.29096225E+01
           2
Time step:                  92 Sim. Time [au]        1840.00
H    -0.56537256E+00    0.35712163E+00    0.99526276E-01
H     0.56537256E+00   -0.35712163E+00    0.29004737E+01
           2
Time step:                  93 Sim. Time [au]        1860.00
H    -0.57560025E+00    0.34717062E+00    0.10904066E+00
H     0.57560025E+00   -0.34717062E+00    0.28909593E+01
           2
Time step:                  94 Sim. Time [au]        1880.00
H    -0.57990160E+00    0.34398270E+00    0.11825348E+00
H     0.57990160E+00   -0.34398270E+00    0.28817465E+01
           2
Time step:                  95 Sim. Time [au]        1900.00
H    -0.58269824E+00    0.34295065E+00    0.12689698E+00
H     0.58269824E+00   -0.34295065E+00    0.28731030E+01
           2
Time step:                  96 Sim. Time [au]        1920.00
H    -0.58512940E+00    0.34208031E+00    0.13493542E+00
H     0.58512940E+00   -0.34208031E+00    0.28650646E+01
           2
Time step:                  97 Sim. Time [au]        1940.00
H    -0.58777113E+00    0.34108573E+00    0.14244658E+00
H     0.58777113E+00   -0.34108573E+00    0.28575534E+01
           2
Time step:                  98 Sim. Time [au]        1960.00
H    -0.59143022E+00    0.33972604E+00    0.14958172E+00
H     0.59143022E+00   -0.33972604E+00    0.28504183E+01
           2
Time step:                  99 Sim. Time [au]        1980.00
H    -0.59798100E+00    0.33741322E+00    0.15653118E+00
H     0.59798100E+00   -0.33741322E+00    0.28434688E+01
           2
Time step:                 100 Sim. Time [au]        2000.00
H    -0.61068295E+00    0.33255541E+00    0.16347981E+00
H     0.61068295E+00   -0.33255541E+00    0.28365202E+01
           2
Time step:                 101 Sim. Time [au]        2020.00
H    -0.62600707E+00    0.32302598E+00    0.17065441E+00
H     0.62600707E+00   -0.32302598E+00    0.28293456E+01
           2
Time step:                 102 Sim. Time [au]        2040.00
H    -0.63609809E+00    0.31070888E+00    0.17843239E+00
H     0.63609809E+00   -0.31070888E+00    0.28215676E+01
           2
Time step:                 103 Sim. Time [au]        2060.00
H    -0.64215435E+00    0.29983767E+00    0.18740642E+00
H     0.64215435E+00   -0.29983767E+00    0.28125936E+01
           2
Time step:                 104 Sim. Time [au]        2080.00
H    -0.64660116E+00    0.29140351E+00    0.19794597E+00
H     0.64660116E+00   -0.29140351E+00    0.28020540E+01
           2
Time step:                 105 Sim. Time [au]        2100.00
H    -0.65067466E+00    0.28466307E+00    0.20881094E+00
H     0.65067466E+00   -0.28466307E+00    0.27911891E+01
           2
Time step:                 106 Sim. Time [au]        2120.00
H    -0.65519196E+00    0.27882670E+00    0.21727209E+00
H     0.65519196E+00   -0.27882670E+00    0.27827279E+01
           2
Time step:                 107 Sim. Time [au]        2140.00
H    -0.66126480E+00    0.27326449E+00    0.22219900E+00
H     0.66126480E+00   -0.27326449E+00    0.27778010E+01
           2
Time step:                 108 Sim. Time [au]        2160.00
H    -0.67171438E+00    0.26724960E+00    0.22452568E+00
H     0.67171438E+00   -0.26724960E+00    0.27754743E+01
           2
Time step:                 109 Sim. Time [au]        2180.00
H    -0.69043178E+00    0.25853223E+00    0.22541722E+00
H     0.69043178E+00   -0.25853223E+00    0.27745828E+01
           2
Time step:                 110 Sim. Time [au]        2200.00
H    -0.70377956E+00    0.24046856E+00    0.22558578E+00
H     0.70377956E+00   -0.24046856E+00    0.27744142E+01
           2
Time step:                 111 Sim. Time [au]        2220.00
H    -0.70829825E+00    0.22321373E+00    0.22531663E+00
H     0.70829825E+00   -0.22321373E+00    0.27746834E+01
           2
Time step:                 112 Sim. Time [au]        2240.00
H    -0.71090428E+00    0.21738061E+00    0.22468946E+00
H     0.71090428E+00   -0.21738061E+00    0.27753105E+01
           2
Time step:                 113 Sim. Time [au]        2260.00
H    -0.71331627E+00    0.21443636E+00    0.22375811E+00
H     0.71331627E+00   -0.21443636E+00    0.27762419E+01
           2
Time step:                 114 Sim. Time [au]        2280.00
H    -0.71611753E+00    0.21204256E+00    0.22246462E+00
H     0.71611753E+00   -0.21204256E+00    0.27775354E+01
           2
Time step:                 115 Sim. Time [au]        2300.00
H    -0.72004296E+00    0.20955858E+00    0.22046758E+00
H     0.72004296E+00   -0.20955858E+00    0.27795324E+01
           2
Time step:                 116 Sim. Time [au]        2320.00
H    -0.72665244E+00    0.20640395E+00    0.21667364E+00
H     0.72665244E+00   -0.20640395E+00    0.27833264E+01
           2
Time step:                 117 Sim. Time [au]        2340.00
H    -0.73835796E+00    0.20141851E+00    0.20799133E+00
H     0.73835796E+00   -0.20141851E+00    0.27920087E+01
           2
Time step:                 118 Sim. Time [au]        2360.00
H    -0.75320774E+00    0.19209857E+00    0.19281470E+00
H     0.75320774E+00   -0.19209857E+00    0.28071853E+01
           2
Time step:                 119 Sim. Time [au]        2380.00
H    -0.76337223E+00    0.17736981E+00    0.17971011E+00
H     0.76337223E+00   -0.17736981E+00    0.28202899E+01
           2
Time step:                 120 Sim. Time [au]        2400.00
H    -0.76797536E+00    0.16450295E+00    0.17208574E+00
H     0.76797536E+00   -0.16450295E+00    0.28279143E+01
           2
Time step:                 121 Sim. Time [au]        2420.00
H    -0.76984357E+00    0.15690092E+00    0.16740573E+00
H     0.76984357E+00   -0.15690092E+00    0.28325943E+01
           2
Time step:                 122 Sim. Time [au]        2440.00
H    -0.77059467E+00    0.15214083E+00    0.16405979E+00
H     0.77059467E+00   -0.15214083E+00    0.28359402E+01
           2
Time step:                 123 Sim. Time [au]        2460.00
H    -0.77073738E+00    0.14842818E+00    0.16140075E+00
H     0.77073738E+00   -0.14842818E+00    0.28385992E+01
           2
Time step:                 124 Sim. Time [au]        2480.00
H    -0.77032303E+00    0.14488004E+00    0.15918722E+00
H     0.77032303E+00   -0.14488004E+00    0.28408128E+01
           2
Time step:                 125 Sim. Time [au]        2500.00
H    -0.76908340E+00    0.14077491E+00    0.15737995E+00
H     0.76908340E+00   -0.14077491E+00    0.28426201E+01
           2
Time step:                 126 Sim. Time [au]        2520.00
H    -0.76585189E+00    0.13455082E+00    0.15606481E+00
H     0.76585189E+00   -0.13455082E+00    0.28439352E+01
           2
Time step:                 127 Sim. Time [au]        2540.00
H    -0.75715649E+00    0.12072348E+00    0.15538719E+00
H     0.75715649E+00   -0.12072348E+00    0.28446128E+01
           2
Time step:                 128 Sim. Time [au]        2560.00
H    -0.74253729E+00    0.99757151E-01    0.15549328E+00
H     0.74253729E+00   -0.99757151E-01    0.28445067E+01
           2
Time step:                 129 Sim. Time [au]        2580.00
H    -0.72980743E+00    0.91012532E-01    0.15656493E+00
H     0.72980743E+00   -0.91012532E-01    0.28434351E+01
           2
Time step:                 130 Sim. Time [au]        2600.00
H    -0.72114211E+00    0.87177915E-01    0.15899642E+00
H     0.72114211E+00   -0.87177915E-01    0.28410036E+01
           2
Time step:                 131 Sim. Time [au]        2620.00
H    -0.71470258E+00    0.84028433E-01    0.16343182E+00
H     0.71470258E+00   -0.84028433E-01    0.28365682E+01
           2
Time step:                 132 Sim. Time [au]        2640.00
H    -0.70916160E+00    0.80683763E-01    0.17025123E+00
H     0.70916160E+00   -0.80683763E-01    0.28297488E+01
           2
Time step:                 133 Sim. Time [au]        2660.00
H    -0.70378121E+00    0.76498726E-01    0.17842202E+00
H     0.70378121E+00   -0.76498726E-01    0.28215780E+01
           2
Time step:                 134 Sim. Time [au]        2680.00
H    -0.69800617E+00    0.70317046E-01    0.18676314E+00
H     0.69800617E+00   -0.70317046E-01    0.28132369E+01
           2
Time step:                 135 Sim. Time [au]        2700.00
H    -0.69102718E+00    0.60189467E-01    0.19470350E+00
H     0.69102718E+00   -0.60189467E-01    0.28052965E+01
           2
Time step:                 136 Sim. Time [au]        2720.00
H    -0.68042654E+00    0.46025708E-01    0.20191620E+00
H     0.68042654E+00   -0.46025708E-01    0.27980838E+01
           2
Time step:                 137 Sim. Time [au]        2740.00
H    -0.66210842E+00    0.34188342E-01    0.20832973E+00
H     0.66210842E+00   -0.34188342E-01    0.27916703E+01
           2
Time step:                 138 Sim. Time [au]        2760.00
H    -0.64815916E+00    0.28949294E-01    0.21414280E+00
H     0.64815916E+00   -0.28949294E-01    0.27858572E+01
           2
Time step:                 139 Sim. Time [au]        2780.00
H    -0.64371524E+00    0.27364175E-01    0.22026014E+00
H     0.64371524E+00   -0.27364175E-01    0.27797399E+01
           2
Time step:                 140 Sim. Time [au]        2800.00
H    -0.64194873E+00    0.26499481E-01    0.22941058E+00
H     0.64194873E+00   -0.26499481E-01    0.27705894E+01
           2
Time step:                 141 Sim. Time [au]        2820.00
H    -0.64116976E+00    0.25712536E-01    0.24525644E+00
H     0.64116976E+00   -0.25712536E-01    0.27547436E+01
           2
Time step:                 142 Sim. Time [au]        2840.00
H    -0.64124456E+00    0.24828663E-01    0.25983643E+00
H     0.64124456E+00   -0.24828663E-01    0.27401636E+01
           2
Time step:                 143 Sim. Time [au]        2860.00
H    -0.64251991E+00    0.23621375E-01    0.26612983E+00
H     0.64251991E+00   -0.23621375E-01    0.27338702E+01
           2
Time step:                 144 Sim. Time [au]        2880.00
H    -0.64610620E+00    0.21565341E-01    0.26786415E+00
H     0.64610620E+00   -0.21565341E-01    0.27321359E+01
           2
Time step:                 145 Sim. Time [au]        2900.00
H    -0.65479739E+00    0.17521178E-01    0.26733822E+00
H     0.65479739E+00   -0.17521178E-01    0.27326618E+01
           2
Time step:                 146 Sim. Time [au]        2920.00
H    -0.66892471E+00    0.10215532E-01    0.26497708E+00
H     0.66892471E+00   -0.10215532E-01    0.27350229E+01
           2
Time step:                 147 Sim. Time [au]        2940.00
H    -0.68174528E+00    0.22879245E-03    0.26044062E+00
H     0.68174528E+00   -0.22879245E-03    0.27395594E+01
           2
Time step:                 148 Sim. Time [au]        2960.00
H    -0.69133917E+00   -0.10116167E-01    0.25316610E+00
H     0.69133917E+00    0.10116167E-01    0.27468339E+01
           2
Time step:                 149 Sim. Time [au]        2980.00
H    -0.69895534E+00   -0.19252228E-01    0.24318621E+00
H     0.69895534E+00    0.19252228E-01    0.27568138E+01
           2
Time step:                 150 Sim. Time [au]        3000.00
H    -0.70560096E+00   -0.26967950E-01    0.23226766E+00
H     0.70560096E+00    0.26967950E-01    0.27677323E+01
           2
Time step:                 151 Sim. Time [au]        3020.00
H    -0.71184991E+00   -0.33675064E-01    0.22307416E+00
H     0.71184991E+00    0.33675064E-01    0.27769258E+01
           2
Time step:                 152 Sim. Time [au]        3040.00
H    -0.71807342E+00   -0.39949144E-01    0.21684102E+00
H     0.71807342E+00    0.39949144E-01    0.27831590E+01
           2
Time step:                 153 Sim. Time [au]        3060.00
H    -0.72461666E+00   -0.46316281E-01    0.21323510E+00
H     0.72461666E+00    0.46316281E-01    0.27867649E+01
           2
Time step:                 154 Sim. Time [au]        3080.00
H    -0.73225077E+00   -0.53142728E-01    0.21125535E+00
H     0.73225077E+00    0.53142728E-01    0.27887446E+01
           2
Time step:                 155 Sim. Time [au]        3100.00
H    -0.74296588E+00   -0.60688456E-01    0.21000796E+00
H     0.74296588E+00    0.60688456E-01    0.27899920E+01
           2
Time step:                 156 Sim. Time [au]        3120.00
H    -0.75693968E+00   -0.69090497E-01    0.20904294E+00
H     0.75693968E+00    0.69090497E-01    0.27909571E+01
           2
Time step:                 157 Sim. Time [au]        3140.00
H    -0.76814198E+00   -0.78230475E-01    0.20820927E+00
H     0.76814198E+00    0.78230475E-01    0.27917907E+01
           2
Time step:                 158 Sim. Time [au]        3160.00
H    -0.77382374E+00   -0.87477261E-01    0.20742942E+00
H     0.77382374E+00    0.87477261E-01    0.27925706E+01
           2
Time step:                 159 Sim. Time [au]        3180.00
H    -0.77653816E+00   -0.95537614E-01    0.20645671E+00
H     0.77653816E+00    0.95537614E-01    0.27935433E+01
           2
Time step:                 160 Sim. Time [au]        3200.00