           2
Time step:                   1 Sim. Time [au]          20.00
H    -0.25901253E-03    0.74252127E-02    0.67928425E-02
H     0.25901253E-03   -0.74252127E-02    0.29932072E+01
           2
Time step:                   2 Sim. Time [au]          40.00
H    -0.40496326E-03    0.90719466E-02    0.14353535E-01
H     0.40496326E-03   -0.90719466E-02    0.29856465E+01
           2
Time step:                   3 Sim. Time [au]          60.00
H    -0.48883052E-03    0.98854548E-02    0.22425771E-01
H     0.48883052E-03   -0.98854548E-02    0.29775742E+01
           2
Time step:                   4 Sim. Time [au]          80.00
H    -0.54710424E-03    0.10625180E-01    0.30685062E-01
H     0.54710424E-03   -0.10625180E-01    0.29693149E+01
           2
Time step:                   5 Sim. Time [au]         100.00
H    -0.59682283E-03    0.11482622E-01    0.38790481E-01
H     0.59682283E-03   -0.11482622E-01    0.29612095E+01
           2
Time step:                   6 Sim. Time [au]         120.00
H    -0.65004856E-03    0.12735315E-01    0.46565744E-01
H     0.65004856E-03   -0.12735315E-01    0.29534343E+01
           2
Time step:                   7 Sim. Time [au]         140.00
H    -0.73188390E-03    0.15091657E-01    0.54235604E-01
H     0.73188390E-03   -0.15091657E-01    0.29457644E+01
           2
Time step:                   8 Sim. Time [au]         160.00
H    -0.94842386E-03    0.20092605E-01    0.62475848E-01
H     0.94842386E-03   -0.20092605E-01    0.29375242E+01
           2
Time step:                   9 Sim. Time [au]         180.00
H    -0.15360733E-02    0.28733425E-01    0.71781552E-01
H     0.15360733E-02   -0.28733425E-01    0.29282184E+01
           2
Time step:                  10 Sim. Time [au]         200.00
H    -0.26014799E-02    0.39335739E-01    0.81828715E-01
H     0.26014799E-02   -0.39335739E-01    0.29181713E+01
           2
Time step:                  11 Sim. Time [au]         220.00
H    -0.43648644E-02    0.49439035E-01    0.91464037E-01
H     0.43648644E-02   -0.49439035E-01    0.29085360E+01
           2
Time step:                  12 Sim. Time [au]         240.00
H    -0.75119606E-02    0.57838832E-01    0.99546518E-01
H     0.75119606E-02   -0.57838832E-01    0.29004535E+01
           2
Time step:                  13 Sim. Time [au]         260.00
H    -0.13394452E-01    0.64562868E-01    0.10576888E+00
H     0.13394452E-01   -0.64562868E-01    0.28942311E+01
           2
Time step:                  14 Sim. Time [au]         280.00
H    -0.23314299E-01    0.70086419E-01    0.11070079E+00
H     0.23314299E-01   -0.70086419E-01    0.28892992E+01
           2
Time step:                  15 Sim. Time [au]         300.00
H    -0.35782751E-01    0.74882274E-01    0.11555207E+00
H     0.35782751E-01   -0.74882274E-01    0.28844479E+01
           2
Time step:                  16 Sim. Time [au]         320.00
H    -0.46571070E-01    0.79294816E-01    0.12224022E+00
H     0.46571070E-01   -0.79294816E-01    0.28777598E+01
           2
Time step:                  17 Sim. Time [au]         340.00
H    -0.54028460E-01    0.83548207E-01    0.13230616E+00
H     0.54028460E-01   -0.83548207E-01    0.28676938E+01
           2
Time step:                  18 Sim. Time [au]         360.00
H    -0.58985613E-01    0.88199621E-01    0.14363404E+00
H     0.58985613E-01   -0.88199621E-01    0.28563660E+01
           2
Time step:                  19 Sim. Time [au]         380.00
H    -0.62266495E-01    0.94340327E-01    0.15257925E+00
H     0.62266495E-01   -0.94340327E-01    0.28474207E+01
           2
Time step:                  20 Sim. Time [au]         400.00
H    -0.64208429E-01    0.10416138E+00    0.15808968E+00
H     0.64208429E-01   -0.10416138E+00    0.28419103E+01
           2
Time step:                  21 Sim. Time [au]         420.00
H    -0.65186684E-01    0.11978043E+00    0.16060499E+00
H     0.65186684E-01   -0.11978043E+00    0.28393950E+01
           2
Time step:                  22 Sim. Time [au]         440.00
H    -0.65750791E-01    0.13342129E+00    0.16044250E+00
H     0.65750791E-01   -0.13342129E+00    0.28395575E+01
           2
Time step:                  23 Sim. Time [au]         460.00
H    -0.66229269E-01    0.13908647E+00    0.15050305E+00
H     0.66229269E-01   -0.13908647E+00    0.28494969E+01
           2
Time step:                  24 Sim. Time [au]         480.00
H    -0.66767083E-01    0.14174956E+00    0.12960627E+00
H     0.66767083E-01   -0.14174956E+00    0.28703937E+01
           2
Time step:                  25 Sim. Time [au]         500.00
H    -0.67472784E-01    0.14385413E+00    0.11721307E+00
H     0.67472784E-01   -0.14385413E+00    0.28827869E+01
           2
Time step:                  26 Sim. Time [au]         520.00
H    -0.68586691E-01    0.14611504E+00    0.10957710E+00
H     0.68586691E-01   -0.14611504E+00    0.28904229E+01
           2
Time step:                  27 Sim. Time [au]         540.00
H    -0.71081467E-01    0.14902240E+00    0.10272465E+00
H     0.71081467E-01   -0.14902240E+00    0.28972754E+01
           2
Time step:                  28 Sim. Time [au]         560.00
H    -0.78371631E-01    0.15337430E+00    0.95508096E-01
H     0.78371631E-01   -0.15337430E+00    0.29044919E+01
           2
Time step:                  29 Sim. Time [au]         580.00
H    -0.91216068E-01    0.16082218E+00    0.87729423E-01
H     0.91216068E-01   -0.16082218E+00    0.29122706E+01
           2
Time step:                  30 Sim. Time [au]         600.00
H    -0.10365027E+00    0.17342053E+00    0.79728372E-01
H     0.10365027E+00   -0.17342053E+00    0.29202716E+01
           2
Time step:                  31 Sim. Time [au]         620.00
H    -0.11264323E+00    0.18789143E+00    0.72292300E-01
H     0.11264323E+00   -0.18789143E+00    0.29277077E+01
           2
Time step:                  32 Sim. Time [au]         640.00
H    -0.11900432E+00    0.19679998E+00    0.66689460E-01
H     0.11900432E+00   -0.19679998E+00    0.29333105E+01
           2
Time step:                  33 Sim. Time [au]         660.00
H    -0.12397079E+00    0.20060116E+00    0.63721419E-01
H     0.12397079E+00   -0.20060116E+00    0.29362786E+01
           2
Time step:                  34 Sim. Time [au]         680.00
H    -0.12835722E+00    0.20258749E+00    0.61923731E-01
H     0.12835722E+00   -0.20258749E+00    0.29380763E+01
           2
Time step:                  35 Sim. Time [au]         700.00
H    -0.13278140E+00    0.20415858E+00    0.60081666E-01
H     0.13278140E+00   -0.20415858E+00    0.29399183E+01
           2
Time step:                  36 Sim. Time [au]         720.00
H    -0.13871602E+00    0.20581724E+00    0.57670703E-01
H     0.13871602E+00   -0.20581724E+00    0.29423293E+01
           2
Time step:                  37 Sim. Time [au]         740.00
H    -0.15190084E+00    0.20793481E+00    0.54217815E-01
H     0.15190084E+00   -0.20793481E+00    0.29457822E+01
           2
Time step:                  38 Sim. Time [au]         760.00
H    -0.17172204E+00    0.21109067E+00    0.48824797E-01
H     0.17172204E+00   -0.21109067E+00    0.29511752E+01
           2
Time step:                  39 Sim. Time [au]         780.00
H    -0.18156558E+00    0.21637012E+00    0.39555141E-01
H     0.18156558E+00   -0.21637012E+00    0.29604449E+01
           2
Time step:                  40 Sim. Time [au]         800.00
H    -0.18619749E+00    0.22500005E+00    0.24829594E-01
H     0.18619749E+00   -0.22500005E+00    0.29751704E+01
           2
Time step:                  41 Sim. Time [au]         820.00
H    -0.18954200E+00    0.23617517E+00    0.11565344E-01
H     0.18954200E+00   -0.23617517E+00    0.29884347E+01
           2
Time step:                  42 Sim. Time [au]         840.00
H    -0.19269176E+00    0.24687499E+00    0.90908054E-02
H     0.19269176E+00   -0.24687499E+00    0.29909092E+01
           2
Time step:                  43 Sim. Time [au]         860.00
H    -0.19625774E+00    0.25545209E+00    0.84778316E-02
H     0.19625774E+00   -0.25545209E+00    0.29915222E+01
           2
Time step:                  44 Sim. Time [au]         880.00
H    -0.20108722E+00    0.26219567E+00    0.84715259E-02
H     0.20108722E+00   -0.26219567E+00    0.29915285E+01
           2
Time step:                  45 Sim. Time [au]         900.00
H    -0.20905217E+00    0.26785625E+00    0.90568034E-02
H     0.20905217E+00   -0.26785625E+00    0.29909432E+01
           2
Time step:                  46 Sim. Time [au]         920.00
H    -0.22422245E+00    0.27307227E+00    0.10520985E-01
H     0.22422245E+00   -0.27307227E+00    0.29894790E+01
           2
Time step:                  47 Sim. Time [au]         940.00
H    -0.24248322E+00    0.27854278E+00    0.13739604E-01
H     0.24248322E+00   -0.27854278E+00    0.29862604E+01
           2
Time step:                  48 Sim. Time [au]         960.00
H    -0.24905719E+00    0.28623547E+00    0.20817762E-01
H     0.24905719E+00   -0.28623547E+00    0.29791822E+01
           2
Time step:                  49 Sim. Time [au]         980.00
H    -0.25138659E+00    0.30191561E+00    0.33437660E-01
H     0.25138659E+00   -0.30191561E+00    0.29665623E+01
           2
Time step:                  50 Sim. Time [au]        1000.00
H    -0.25300506E+00    0.32010445E+00    0.46952855E-01
H     0.25300506E+00   -0.32010445E+00    0.29530471E+01
           2
Time step:                  51 Sim. Time [au]        1020.00
H    -0.25457741E+00    0.32776927E+00    0.56389723E-01
H     0.25457741E+00   -0.32776927E+00    0.29436103E+01
           2
Time step:                  52 Sim. Time [au]        1040.00
H    -0.25650308E+00    0.33141863E+00    0.62620668E-01
H     0.25650308E+00   -0.33141863E+00    0.29373793E+01
           2
Time step:                  53 Sim. Time [au]        1060.00
H    -0.25949319E+00    0.33417491E+00    0.67387821E-01
H     0.25949319E+00   -0.33417491E+00    0.29326122E+01
           2
Time step:                  54 Sim. Time [au]        1080.00
H    -0.26529809E+00    0.33692461E+00    0.71698748E-01
H     0.26529809E+00   -0.33692461E+00    0.29283013E+01
           2
Time step:                  55 Sim. Time [au]        1100.00
H    -0.27627335E+00    0.34027175E+00    0.76208635E-01
H     0.27627335E+00   -0.34027175E+00    0.29237914E+01
           2
Time step:                  56 Sim. Time [au]        1120.00
H    -0.28940314E+00    0.34524866E+00    0.81657505E-01
H     0.28940314E+00   -0.34524866E+00    0.29183425E+01
           2
Time step:                  57 Sim. Time [au]        1140.00
H    -0.30018509E+00    0.35448272E+00    0.89419907E-01
H     0.30018509E+00   -0.35448272E+00    0.29105801E+01
           2
Time step:                  58 Sim. Time [au]        1160.00
H    -0.30854548E+00    0.37379069E+00    0.10211945E+00
H     0.30854548E+00   -0.37379069E+00    0.28978806E+01
           2
Time step:                  59 Sim. Time [au]        1180.00
H    -0.31538466E+00    0.38981428E+00    0.11884767E+00
H     0.31538466E+00   -0.38981428E+00    0.28811523E+01
           2
Time step:                  60 Sim. Time [au]        1200.00
H    -0.32144838E+00    0.39418336E+00    0.12821981E+00
H     0.32144838E+00   -0.39418336E+00    0.28717802E+01
           2
Time step:                  61 Sim. Time [au]        1220.00
H    -0.32730363E+00    0.39666216E+00    0.13089425E+00
H     0.32730363E+00   -0.39666216E+00    0.28691057E+01
           2
Time step:                  62 Sim. Time [au]        1240.00
H    -0.33350033E+00    0.39903749E+00    0.13170266E+00
H     0.33350033E+00   -0.39903749E+00    0.28682973E+01
           2
Time step:                  63 Sim. Time [au]        1260.00
H    -0.34117617E+00    0.40187167E+00    0.13169287E+00
H     0.34117617E+00   -0.40187167E+00    0.28683071E+01
           2
Time step:                  64 Sim. Time [au]        1280.00
H    -0.35420157E+00    0.40586859E+00    0.13097252E+00
H     0.35420157E+00   -0.40586859E+00    0.28690275E+01
           2
Time step:                  65 Sim. Time [au]        1300.00
H    -0.37187518E+00    0.41251919E+00    0.12931755E+00
H     0.37187518E+00   -0.41251919E+00    0.28706824E+01
           2
Time step:                  66 Sim. Time [au]        1320.00
H    -0.38180262E+00    0.42436573E+00    0.12585705E+00
H     0.38180262E+00   -0.42436573E+00    0.28741429E+01
           2
Time step:                  67 Sim. Time [au]        1340.00
H    -0.38634434E+00    0.43979341E+00    0.11833376E+00
H     0.38634434E+00   -0.43979341E+00    0.28816662E+01
           2
Time step:                  68 Sim. Time [au]        1360.00
H    -0.38925604E+00    0.44975382E+00    0.10673857E+00
H     0.38925604E+00   -0.44975382E+00    0.28932614E+01
           2
Time step:                  69 Sim. Time [au]        1380.00
H    -0.39172577E+00    0.45324973E+00    0.95746273E-01
H     0.39172577E+00   -0.45324973E+00    0.29042537E+01
           2
Time step:                  70 Sim. Time [au]        1400.00
H    -0.39426438E+00    0.45464797E+00    0.87090555E-01
H     0.39426438E+00   -0.45464797E+00    0.29129094E+01
           2
Time step:                  71 Sim. Time [au]        1420.00
H    -0.39744558E+00    0.45550979E+00    0.80554048E-01
H     0.39744558E+00   -0.45550979E+00    0.29194460E+01
           2
Time step:                  72 Sim. Time [au]        1440.00
H    -0.40266069E+00    0.45612520E+00    0.75492055E-01
H     0.40266069E+00   -0.45612520E+00    0.29245079E+01
           2
Time step:                  73 Sim. Time [au]        1460.00
H    -0.41361628E+00    0.45654735E+00    0.71307407E-01
H     0.41361628E+00   -0.45654735E+00    0.29286926E+01
           2
Time step:                  74 Sim. Time [au]        1480.00
H    -0.43048624E+00    0.45674084E+00    0.67239434E-01
H     0.43048624E+00   -0.45674084E+00    0.29327606E+01
           2
Time step:                  75 Sim. Time [au]        1500.00
H    -0.44226895E+00    0.45652752E+00    0.60934305E-01
H     0.44226895E+00   -0.45652752E+00    0.29390657E+01
           2
Time step:                  76 Sim. Time [au]        1520.00
H    -0.44862909E+00    0.45553213E+00    0.45835494E-01
H     0.44862909E+00   -0.45553213E+00    0.29541645E+01
           2
Time step:                  77 Sim. Time [au]        1540.00
H    -0.45274344E+00    0.45347770E+00    0.29013959E-01
H     0.45274344E+00   -0.45347770E+00    0.29709860E+01
           2
Time step:                  78 Sim. Time [au]        1560.00
H    -0.45593500E+00    0.45006038E+00    0.20415164E-01
H     0.45593500E+00   -0.45006038E+00    0.29795848E+01
           2
Time step:                  79 Sim. Time [au]        1580.00
H    -0.45877974E+00    0.44452778E+00    0.16194870E-01
H     0.45877974E+00   -0.44452778E+00    0.29838051E+01
           2
Time step:                  80 Sim. Time [au]        1600.00
H    -0.46173712E+00    0.43571473E+00    0.14381432E-01
H     0.46173712E+00   -0.43571473E+00    0.29856186E+01
           2
Time step:                  81 Sim. Time [au]        1620.00
H    -0.46549632E+00    0.42352551E+00    0.14752522E-01
H     0.46549632E+00   -0.42352551E+00    0.29852475E+01
           2
Time step:                  82 Sim. Time [au]        1640.00
H    -0.47125036E+00    0.41163985E+00    0.17809962E-01
H     0.47125036E+00   -0.41163985E+00    0.29821900E+01
           2
Time step:                  83 Sim. Time [au]        1660.00
H    -0.47996192E+00    0.40420111E+00    0.25076029E-01
H     0.47996192E+00   -0.40420111E+00    0.29749240E+01
           2
Time step:                  84 Sim. Time [au]        1680.00
H    -0.49042745E+00    0.40092280E+00    0.38291497E-01
H     0.49042745E+00   -0.40092280E+00    0.29617085E+01
           2
Time step:                  85 Sim. Time [au]        1700.00
H    -0.50025935E+00    0.39920765E+00    0.52627457E-01
H     0.50025935E+00   -0.39920765E+00    0.29473725E+01
           2
Time step:                  86 Sim. Time [au]        1720.00
H    -0.50836880E+00    0.39761701E+00    0.61297920E-01
H     0.50836880E+00   -0.39761701E+00    0.29387021E+01
           2
Time step:                  87 Sim. Time [au]        1740.00
H    -0.51493753E+00    0.39560123E+00    0.66444857E-01
H     0.51493753E+00   -0.39560123E+00    0.29335551E+01
           2
Time step:                  88 Sim. Time [au]        1760.00
H    -0.52051632E+00    0.39277841E+00    0.70907431E-01
H     0.52051632E+00   -0.39277841E+00    0.29290926E+01
           2
Time step:                  89 Sim. Time [au]        1780.00
H    -0.52573323E+00    0.38851642E+00    0.75999152E-01
H     0.52573323E+00   -0.38851642E+00    0.29240008E+01
           2
Time step:                  90 Sim. Time [au]        1800.00
H    -0.53198248E+00    0.38159908E+00    0.82406775E-01
H     0.53198248E+00   -0.38159908E+00    0.29175932E+01
           2
Time step:                  91 Sim. Time [au]        1820.00
H    -0.54461320E+00    0.37058717E+00    0.90377495E-01
H     0.54461320E+00   -0.37058717E+00    0.29096225E+01
           2
Time step:                  92 Sim. Time [au]        1840.00
H    -0.56537256E+00    0.35712162E+00    0.99526283E-01
H     0.56537256E+00   -0.35712162E+00    0.29004737E+01
           2
Time step:                  93 Sim. Time [au]        1860.00
H    -0.57560025E+00    0.34717062E+00    0.10904067E+00
H     0.57560025E+00   -0.34717062E+00    0.28909593E+01
           2
Time step:                  94 Sim. Time [au]        1880.00
H    -0.57990160E+00    0.34398270E+00    0.11825349E+00
H     0.57990160E+00   -0.34398270E+00    0.28817465E+01
           2
Time step:                  95 Sim. Time [au]        1900.00
H    -0.58269824E+00    0.34295065E+00    0.12689699E+00
H     0.58269824E+00   -0.34295065E+00    0.28731030E+01
           2
Time step:                  96 Sim. Time [au]        1920.00
H    -0.58512940E+00    0.34208031E+00    0.13493543E+00
H     0.58512940E+00   -0.34208031E+00    0.28650646E+01
           2
Time step:                  97 Sim. Time [au]        1940.00
H    -0.58777113E+00    0.34108573E+00    0.14244658E+00
H     0.58777113E+00   -0.34108573E+00    0.28575534E+01
           2
Time step:                  98 Sim. Time [au]        1960.00
H    -0.59143022E+00    0.33972604E+00    0.14958173E+00
H     0.59143022E+00   -0.33972604E+00    0.28504183E+01
           2
Time step:                  99 Sim. Time [au]        1980.00
H    -0.59798100E+00    0.33741322E+00    0.15653118E+00
H     0.59798100E+00   -0.33741322E+00    0.28434688E+01
           2
Time step:                 100 Sim. Time [au]        2000.00
H    -0.61068296E+00    0.33255542E+00    0.16347980E+00
H     0.61068296E+00   -0.33255542E+00    0.28365202E+01
