           3
Units: angs.;  Time step:           1  ;  Sim. Time [au]:          20.00
O     0.26805290E-05    0.26805290E-05    0.11725864E+00
H     0.10446384E-03    0.75626253E+00   -0.46844299E+00
H    -0.44482865E-03   -0.75660289E+00   -0.46899228E+00
           3
Units: angs.;  Time step:           2  ;  Sim. Time [au]:          40.00
O     0.10721748E-04    0.10721748E-04    0.11724256E+00
H     0.41762794E-03    0.75410567E+00   -0.46659929E+00
H    -0.17783462E-02   -0.75546638E+00   -0.46879527E+00
