3
Units: a.u.;  Time step: 1
O   0.5065291961E-06  0.5065291961E-06 -0.1013058392E-05
H   0.1973006086E-04 -0.1358870561E-03  0.1161569952E-03
H  -0.8401468378E-04  0.7160243317E-04  0.1241225060E-04
3
Units: a.u.;  Time step: 2
O   0.1012988920E-05  0.1012988920E-05 -0.2025977840E-05
H   0.3941717126E-04 -0.2714782991E-03  0.2320611278E-03
H  -0.1678464756E-03  0.1430489947E-03  0.2479748093E-04
