Timestep: 0
3
0 0 1 
Timestep: 0
3
0 0 1 
Timestep: 1
3
0 0 1 
Timestep: 2
3
0 0 1 
Timestep: 3
3
0 0 1 
Timestep: 4
3
0 0 1 
Timestep: 5
3
0 0 1 
Timestep: 6
3
0 0 1 
Timestep: 7
3
0 0 1 
Timestep: 7
3
0 1 0 
Timestep: 7
3
0 1 0 
Timestep: 7
3
0 1 0 
Timestep: 8
3
0 1 0 
