           2
Time step:                   1 Sim. Time [au]          20.00
N     0.19422062E-03    0.47544202E-02   -0.51700998E-03
N    -0.19422062E-03    0.11952456E+01    0.51700998E-03
           2
Time step:                   1 Sim. Time [au]          20.00
N     0.12340674E-02   -0.18745063E-02   -0.99391702E-04
N    -0.12340674E-02    0.12018745E+01    0.99391702E-04
           2
Time step:                   2 Sim. Time [au]          40.00
N     0.38223732E-03    0.10974354E-01   -0.10385772E-02
N    -0.38223732E-03    0.11890256E+01    0.10385772E-02
           2
Time step:                   2 Sim. Time [au]          40.00
N     0.25190322E-02   -0.20730579E-02   -0.22510254E-03
N    -0.25190322E-02    0.12020731E+01    0.22510254E-03
