           3
Time step:                   1 Sim. Time [au]          20.00
O     0.49312282E-03    0.11770500E+00    0.59496057E-03
H     0.75326027E+00   -0.46409424E+00   -0.81011177E-02
H    -0.76064539E+00   -0.47561077E+00   -0.10351744E-02
           3
Time step:                   2 Sim. Time [au]          40.00
O     0.81869222E-03    0.11715958E+00    0.10946423E-02
H     0.74882438E+00   -0.45472368E+00   -0.16422327E-01
H    -0.76254528E+00   -0.47718195E+00   -0.18768714E-02
           3
Time step:                   3 Sim. Time [au]          60.00
O     0.10263684E-02    0.11644339E+00    0.15834151E-02
H     0.74441484E+00   -0.44546406E+00   -0.24690541E-01
H    -0.76272048E+00   -0.47665599E+00   -0.24296792E-02
           3
Time step:                   4 Sim. Time [au]          80.00
O     0.10184430E-02    0.11565653E+00    0.20311054E-02
H     0.74136321E+00   -0.43660408E+00   -0.32751026E-01
H    -0.76071267E+00   -0.47411264E+00   -0.26958047E-02
           3
Time step:                   5 Sim. Time [au]         100.00
O     0.86672093E-03    0.11484842E+00    0.24107614E-02
H     0.74019219E+00   -0.42878598E+00   -0.40709720E-01
H    -0.75668239E+00   -0.47038351E+00   -0.29840473E-02
           3
Time step:                   6 Sim. Time [au]         120.00
O     0.50294816E-03    0.11402050E+00    0.27776394E-02
H     0.74156021E+00   -0.42263991E+00   -0.48652396E-01
H    -0.75137722E+00   -0.46532890E+00   -0.29750482E-02
           3
Time step:                   7 Sim. Time [au]         140.00
O    -0.81078663E-04    0.11325674E+00    0.30917961E-02
H     0.74580374E+00   -0.41860650E+00   -0.56392536E-01
H    -0.74569526E+00   -0.45966209E+00   -0.22945561E-02
           3
Time step:                   8 Sim. Time [au]         160.00
O    -0.76786327E-03    0.11255150E+00    0.33923196E-02
H     0.75261265E+00   -0.41612820E+00   -0.64028387E-01
H    -0.74050328E+00   -0.45408567E+00   -0.15240291E-02
           3
Time step:                   9 Sim. Time [au]         180.00
O    -0.14915985E-02    0.11197378E+00    0.37920977E-02
H     0.76160745E+00   -0.41550011E+00   -0.71747149E-01
H    -0.73592062E+00   -0.44952697E+00   -0.47133382E-03
           3
Time step:                  10 Sim. Time [au]         200.00
O    -0.21600155E-02    0.11153420E+00    0.42649083E-02
H     0.77113509E+00   -0.41634502E+00   -0.79459478E-01
H    -0.73354573E+00   -0.44647750E+00   -0.87989545E-04
           3
Time step:                  11 Sim. Time [au]         220.00
O    -0.27984716E-02    0.11117956E+00    0.46971765E-02
H     0.78057441E+00   -0.41761437E+00   -0.87142350E-01
H    -0.73340970E+00   -0.44447970E+00    0.32569712E-03
           3
Time step:                  12 Sim. Time [au]         240.00
O    -0.32598946E-02    0.11087598E+00    0.51077739E-02
H     0.78921219E+00   -0.41817043E+00   -0.94191909E-01
H    -0.73557786E+00   -0.44461042E+00    0.69108210E-03
           3
Time step:                  13 Sim. Time [au]         260.00
O    -0.34832438E-02    0.11057770E+00    0.56082494E-02
H     0.79629748E+00   -0.41824463E+00   -0.10101676E+00
H    -0.74015433E+00   -0.44711158E+00    0.11407996E-02
           3
Time step:                  14 Sim. Time [au]         280.00
O    -0.34458180E-02    0.11033650E+00    0.60859267E-02
H     0.80141944E+00   -0.41727343E+00   -0.10750746E+00
H    -0.74645385E+00   -0.45109853E+00    0.16093934E-02
           3
Time step:                  15 Sim. Time [au]         300.00
O    -0.32590371E-02    0.11008405E+00    0.65178432E-02
H     0.80403652E+00   -0.41554591E+00   -0.11369397E+00
H    -0.75371330E+00   -0.45638925E+00    0.24707130E-02
           3
Time step:                  16 Sim. Time [au]         320.00
O    -0.29052873E-02    0.10968238E+00    0.70154771E-02
H     0.80429842E+00   -0.41256842E+00   -0.11957359E+00
H    -0.76042440E+00   -0.46164577E+00    0.33219152E-02
           3
Time step:                  17 Sim. Time [au]         340.00
O    -0.24503437E-02    0.10920245E+00    0.75562513E-02
H     0.80166643E+00   -0.40827137E+00   -0.12576547E+00
H    -0.76615312E+00   -0.46644300E+00    0.42708863E-02
           3
Time step:                  18 Sim. Time [au]         360.00
O    -0.18016139E-02    0.10873938E+00    0.80051282E-02
H     0.79723599E+00   -0.40298306E+00   -0.13202421E+00
H    -0.77003515E+00   -0.47047334E+00    0.51556457E-02
           3
Time step:                  19 Sim. Time [au]         380.00
O    -0.97489828E-03    0.10824501E+00    0.84970037E-02
H     0.79084801E+00   -0.39710699E+00   -0.13816316E+00
H    -0.77190217E+00   -0.47338989E+00    0.57399529E-02
           3
Time step:                  20 Sim. Time [au]         400.00
O    -0.17371690E-03    0.10766371E+00    0.90673397E-02
H     0.78319644E+00   -0.39137315E+00   -0.14424504E+00
H    -0.77159460E+00   -0.47474090E+00    0.66232579E-02
