           3
 Time step:           1
O   0.4931228187E-03  0.1177050030E+00  0.5949605665E-03
H   0.7532602749E+00 -0.4640942405E+00 -0.8101117699E-02
H  -0.7606453881E+00 -0.4756107670E+00 -0.1035174362E-02
           3
 Time step:           2
O   0.8186922223E-03  0.1171595782E+00  0.1094642262E-02
H   0.7488243757E+00 -0.4547236788E+00 -0.1642232698E-01
H  -0.7625452791E+00 -0.4771819468E+00 -0.1876871447E-02
           3
 Time step:           3
O   0.1026368449E-02  0.1164433943E+00  0.1583415090E-02
H   0.7444148380E+00 -0.4454640648E+00 -0.2469054062E-01
H  -0.7627204825E+00 -0.4766559920E+00 -0.2429679199E-02
           3
 Time step:           4
O   0.1018442959E-02  0.1156565347E+00  0.2031105379E-02
H   0.7413632145E+00 -0.4366040828E+00 -0.3275102574E-01
H  -0.7607126661E+00 -0.4741126427E+00 -0.2695804702E-02
           3
 Time step:           5
O   0.8667209320E-03  0.1148484230E+00  0.2410761398E-02
H   0.7401921872E+00 -0.4287859823E+00 -0.4070971964E-01
H  -0.7566823932E+00 -0.4703835086E+00 -0.2984047255E-02
           3
 Time step:           6
O   0.5029481626E-03  0.1140205033E+00  0.2777639351E-02
H   0.7415602135E+00 -0.4226399121E+00 -0.4865239644E-01
H  -0.7513772170E+00 -0.4653288953E+00 -0.2975048225E-02
           3
 Time step:           7
O  -0.8107866313E-04  0.1132567412E+00  0.3091796084E-02
H   0.7458037439E+00 -0.4186064959E+00 -0.5639253564E-01
H  -0.7456952639E+00 -0.4596620889E+00 -0.2294556122E-02
           3
 Time step:           8
O  -0.7678632748E-03  0.1125514999E+00  0.3392319606E-02
H   0.7526126460E+00 -0.4161282033E+00 -0.6402838668E-01
H  -0.7405032826E+00 -0.4540856663E+00 -0.1524029150E-02
           3
 Time step:           9
O  -0.1491598507E-02  0.1119737788E+00  0.3792097742E-02
H   0.7616074483E+00 -0.4155001121E+00 -0.7174714878E-01
H  -0.7359206186E+00 -0.4495269715E+00 -0.4713338155E-03
           3
 Time step:          10
O  -0.2160015534E-02  0.1115341976E+00  0.4264908250E-02
H   0.7711350939E+00 -0.4163450222E+00 -0.7945947763E-01
H  -0.7335457308E+00 -0.4464775002E+00 -0.8798954498E-04
           3
 Time step:          11
O  -0.2798471579E-02  0.1111795623E+00  0.4697176496E-02
H   0.7805744143E+00 -0.4176143745E+00 -0.8714234959E-01
H  -0.7334097032E+00 -0.4444796976E+00  0.3256971234E-03
           3
 Time step:          12
O  -0.3259894612E-02  0.1108759837E+00  0.5107773858E-02
H   0.7892121864E+00 -0.4181704346E+00 -0.9419190936E-01
H  -0.7355778612E+00 -0.4446104216E+00  0.6910820972E-03
           3
 Time step:          13
O  -0.3483243830E-02  0.1105777005E+00  0.5608249393E-02
H   0.7962974757E+00 -0.4182446290E+00 -0.1010167610E+00
H  -0.7401543257E+00 -0.4471115849E+00  0.1140799628E-02
           3
 Time step:          14
O  -0.3445817981E-02  0.1103365007E+00  0.6085926735E-02
H   0.8014194429E+00 -0.4172734343E+00 -0.1075074636E+00
H  -0.7464538488E+00 -0.4510985317E+00  0.1609393412E-02
           3
 Time step:          15
O  -0.3259037062E-02  0.1100840469E+00  0.6517843224E-02
H   0.8040365218E+00 -0.4155459080E+00 -0.1136939720E+00
H  -0.7537133023E+00 -0.4563892538E+00  0.2470712998E-02
           3
 Time step:          16
O  -0.2905287309E-02  0.1096823838E+00  0.7015477076E-02
H   0.8042984220E+00 -0.4125684181E+00 -0.1195735934E+00
H  -0.7604244025E+00 -0.4616457726E+00  0.3321915189E-02
           3
 Time step:          17
O  -0.2450343668E-02  0.1092024460E+00  0.7556251296E-02
H   0.8016664283E+00 -0.4082713724E+00 -0.1257654729E+00
H  -0.7661531219E+00 -0.4664429981E+00  0.4270886287E-02
           3
 Time step:          18
O  -0.1801613940E-02  0.1087393844E+00  0.8005128196E-02
H   0.7972359941E+00 -0.4029830623E+00 -0.1320242129E+00
H  -0.7700351549E+00 -0.4704733386E+00  0.5155645652E-02
           3
 Time step:          19
O  -0.9748982808E-03  0.1082450146E+00  0.8497003678E-02
H   0.7908480140E+00 -0.3971069865E+00 -0.1381631553E+00
H  -0.7719021727E+00 -0.4733898854E+00  0.5739952878E-02
           3
 Time step:          20
O  -0.1737169048E-03  0.1076637085E+00  0.9067339729E-02
H   0.7831964361E+00 -0.3913731475E+00 -0.1442450399E+00
H  -0.7715946044E+00 -0.4747409006E+00  0.6623257934E-02
