           3
Time step:                   1 Sim. Time [au]          20.00
O     0.49312282E-03    0.11770500E+00    0.59496057E-03
H     0.75326027E+00   -0.46409424E+00   -0.81011177E-02
H    -0.76064539E+00   -0.47561077E+00   -0.10351744E-02
           3
Time step:                   2 Sim. Time [au]          40.00
O     0.81869222E-03    0.11715958E+00    0.10946423E-02
H     0.74882438E+00   -0.45472368E+00   -0.16422327E-01
H    -0.76254528E+00   -0.47718195E+00   -0.18768714E-02
           3
Time step:                   3 Sim. Time [au]          60.00
O     0.10263684E-02    0.11644339E+00    0.15834151E-02
H     0.74441484E+00   -0.44546406E+00   -0.24690541E-01
H    -0.76272048E+00   -0.47665599E+00   -0.24296792E-02
           3
Time step:                   4 Sim. Time [au]          80.00
O     0.10184430E-02    0.11565653E+00    0.20311054E-02
H     0.74136321E+00   -0.43660408E+00   -0.32751026E-01
H    -0.76071267E+00   -0.47411264E+00   -0.26958047E-02
           3
Time step:                   5 Sim. Time [au]         100.00
O     0.86672093E-03    0.11484842E+00    0.24107614E-02
H     0.74019219E+00   -0.42878598E+00   -0.40709720E-01
H    -0.75668239E+00   -0.47038351E+00   -0.29840473E-02
           3
Time step:                   6 Sim. Time [au]         120.00
O     0.50294816E-03    0.11402050E+00    0.27776394E-02
H     0.74156021E+00   -0.42263991E+00   -0.48652396E-01
H    -0.75137722E+00   -0.46532890E+00   -0.29750482E-02
           3
Time step:                   7 Sim. Time [au]         140.00
O    -0.81078663E-04    0.11325674E+00    0.30917961E-02
H     0.74580374E+00   -0.41860650E+00   -0.56392536E-01
H    -0.74569526E+00   -0.45966209E+00   -0.22945561E-02
           3
Time step:                   8 Sim. Time [au]         160.00
O    -0.76786327E-03    0.11255150E+00    0.33923196E-02
H     0.75261265E+00   -0.41612820E+00   -0.64028387E-01
H    -0.74050328E+00   -0.45408567E+00   -0.15240291E-02
           3
Time step:                   9 Sim. Time [au]         180.00
O    -0.14915985E-02    0.11197378E+00    0.37920977E-02
H     0.76160745E+00   -0.41550011E+00   -0.71747149E-01
H    -0.73592062E+00   -0.44952697E+00   -0.47133382E-03
           3
Time step:                  10 Sim. Time [au]         200.00
O    -0.21600155E-02    0.11153420E+00    0.42649083E-02
H     0.77113509E+00   -0.41634502E+00   -0.79459478E-01
H    -0.73354573E+00   -0.44647750E+00   -0.87989545E-04
