           3
Time step:                   1 Sim. Time [au]          10.00
O     0.24306488E-03    0.11788084E+00    0.29442708E-03
H     0.75526312E+00   -0.46823977E+00   -0.40433203E-02
H    -0.75896549E+00   -0.47400530E+00   -0.52201335E-03
           3
Time step:                   2 Sim. Time [au]          20.00
O     0.44878397E-03    0.11768956E+00    0.55270477E-03
H     0.75327115E+00   -0.46401224E+00   -0.81625727E-02
H    -0.76053520E+00   -0.47553198E+00   -0.97018964E-03
