           3
Time step:                   1 Sim. Time [au]          20.00
O     0.49312282E-03    0.11770500E+00    0.59496057E-03
H     0.75326027E+00   -0.46409424E+00   -0.81011177E-02
H    -0.76064539E+00   -0.47561077E+00   -0.10351744E-02
