           3
 Time step:           1
O   0.4931228187E-03  0.1179149016E+00  0.5949605665E-03
H   0.7558431361E+00 -0.4657599988E+00 -0.8101117699E-02
H  -0.7632282492E+00 -0.4772765253E+00 -0.1035174362E-02
           3
 Time step:           2
O   0.8192566297E-03  0.1179707873E+00  0.1098085625E-02
H   0.7588825885E+00 -0.4611378611E+00 -0.1647255871E-01
H  -0.7726124502E+00 -0.4836432945E+00 -0.1881292859E-02
           3
 Time step:           3
O   0.1032149511E-02  0.1181683286E+00  0.1595746220E-02
H   0.7660162047E+00 -0.4590413561E+00 -0.2487320018E-01
H  -0.7844136063E+00 -0.4904568992E+00 -0.2442739617E-02
           3
 Time step:           4
O   0.1042258399E-02  0.1184880436E+00  0.2057135720E-02
H   0.7772821855E+00 -0.4587567496E+00 -0.3314392284E-01
H  -0.7970096363E+00 -0.4969017522E+00 -0.2716061802E-02
           3
 Time step:           5
O   0.9304858763E-03  0.1188341991E+00  0.2451553075E-02
H   0.7916120115E+00 -0.4597282927E+00 -0.4134156244E-01
H  -0.8091142962E+00 -0.5027035315E+00 -0.2999650925E-02
           3
 Time step:           6
O   0.6337120855E-03  0.1190552227E+00  0.2827815652E-02
H   0.8079879392E+00 -0.4613645942E+00 -0.4946300951E-01
H  -0.8198804308E+00 -0.5065153997E+00 -0.2960834597E-02
           3
 Time step:           7
O   0.1393151901E-03  0.1190923909E+00  0.3138017336E-02
H   0.8252210547E+00 -0.4630374540E+00 -0.5721006920E-01
H  -0.8286106712E+00 -0.5078547021E+00 -0.2210647364E-02
           3
 Time step:           8
O  -0.4518909454E-03  0.1188240289E+00  0.3413673576E-02
H   0.8418231769E+00 -0.4634118898E+00 -0.6457205601E-01
H  -0.8347289338E+00 -0.5063597089E+00 -0.1319290540E-02
           3
 Time step:           9
O  -0.1098968578E-02  0.1182410984E+00  0.3761876439E-02
H   0.8566796034E+00 -0.4623549541E+00 -0.7165094124E-01
H  -0.8372246053E+00 -0.5021471751E+00 -0.8786812277E-04
           3
 Time step:          10
O  -0.1736234969E-02  0.1173219794E+00  0.4153513190E-02
H   0.8678864423E+00 -0.4594287342E+00 -0.7831216226E-01
H  -0.8370233344E+00 -0.4952575989E+00  0.5327601341E-03
           3
 Time step:          11
O  -0.2406458465E-02  0.1160301992E+00  0.4475028444E-02
H   0.8750127881E+00 -0.4538419400E+00 -0.8453335333E-01
H  -0.8340701184E+00 -0.4852415577E+00  0.1242640032E-02
           3
 Time step:          12
O  -0.2965609881E-02  0.1143948928E+00  0.4748670919E-02
H   0.8779212648E+00 -0.4449802858E+00 -0.8975972869E-01
H  -0.8289578339E+00 -0.4736527796E+00  0.1958591828E-02
           3
 Time step:          13
O  -0.3338223547E-02  0.1124740670E+00  0.5092599355E-02
H   0.8767516083E+00 -0.4338049457E+00 -0.9449575013E-01
H  -0.8229102237E+00 -0.4616504418E+00  0.2804198404E-02
           3
 Time step:          14
O  -0.3473107330E-02  0.1104538852E+00  0.5403494601E-02
H   0.8722249246E+00 -0.4206253072E+00 -0.9876720343E-01
H  -0.8168261933E+00 -0.4496097887E+00  0.3700712332E-02
           3
 Time step:          15
O  -0.3447437400E-02  0.1084150325E+00  0.5669816178E-02
H   0.8650752004E+00 -0.4066695351E+00 -0.1027692003E+00
H  -0.8117616862E+00 -0.4387749912E+00  0.5005846756E-02
           3
 Time step:          16
O  -0.3211873096E-02  0.1063666141E+00  0.6015529283E-02
H   0.8567532399E+00 -0.3923675030E+00 -0.1066804291E+00
H  -0.8080130836E+00 -0.4292187124E+00  0.6299946063E-02
           3
 Time step:          17
O  -0.2809708766E-02  0.1045076489E+00  0.6430334020E-02
H   0.8479139144E+00 -0.3784681060E+00 -0.1112995413E+00
H  -0.8066967566E+00 -0.4217303339E+00  0.7675540470E-02
           3
 Time step:          18
O  -0.2137295245E-02  0.1030300860E+00  0.6790119317E-02
H   0.8406052429E+00 -0.3659309591E+00 -0.1165403717E+00
H  -0.8080764620E+00 -0.4169073222E+00  0.8956454298E-02
           3
 Time step:          19
O  -0.1209569738E-02  0.1019424143E+00  0.7237928288E-02
H   0.8352483949E+00 -0.3555341145E+00 -0.1223318886E+00
H  -0.8125778427E+00 -0.4149277347E+00  0.9892760783E-02
           3
 Time step:          20
O  -0.2369776109E-03  0.1012009750E+00  0.7813335696E-02
H   0.8326552667E+00 -0.3480824612E+00 -0.1287854186E+00
H  -0.8200493595E+00 -0.4154549276E+00  0.1106721854E-01
