           3
Time step:                   1 Sim. Time [au]          20.00
O     0.49312282E-03    0.11770500E+00    0.59496057E-03
H     0.75326027E+00   -0.46409424E+00   -0.81011177E-02
H    -0.76064539E+00   -0.47561077E+00   -0.10351744E-02
           3
Time step:                   2 Sim. Time [au]          40.00
O     0.81869225E-03    0.11715958E+00    0.10946421E-02
H     0.74882438E+00   -0.45472368E+00   -0.16422327E-01
H    -0.76254528E+00   -0.47718195E+00   -0.18768710E-02
           3
Time step:                   3 Sim. Time [au]          60.00
O     0.10263685E-02    0.11644339E+00    0.15834146E-02
H     0.74441484E+00   -0.44546407E+00   -0.24690540E-01
H    -0.76272048E+00   -0.47665599E+00   -0.24296786E-02
           3
Time step:                   4 Sim. Time [au]          80.00
O     0.10184430E-02    0.11565654E+00    0.20311043E-02
H     0.74136321E+00   -0.43660409E+00   -0.32751024E-01
H    -0.76071267E+00   -0.47411264E+00   -0.26958047E-02
           3
Time step:                   5 Sim. Time [au]         100.00
O     0.86672078E-03    0.11484842E+00    0.24107596E-02
H     0.74019218E+00   -0.42878599E+00   -0.40709716E-01
H    -0.75668240E+00   -0.47038351E+00   -0.29840492E-02
           3
Time step:                   6 Sim. Time [au]         120.00
O     0.50294769E-03    0.11402050E+00    0.27776365E-02
H     0.74156021E+00   -0.42263992E+00   -0.48652390E-01
H    -0.75137722E+00   -0.46532890E+00   -0.29750532E-02
           3
Time step:                   7 Sim. Time [au]         140.00
O    -0.81079697E-04    0.11325674E+00    0.30917919E-02
H     0.74580373E+00   -0.41860650E+00   -0.56392527E-01
H    -0.74569527E+00   -0.45966209E+00   -0.22945650E-02
           3
Time step:                   8 Sim. Time [au]         160.00
O    -0.76786518E-03    0.11255150E+00    0.33923141E-02
H     0.75261263E+00   -0.41612821E+00   -0.64028374E-01
H    -0.74050329E+00   -0.45408567E+00   -0.15240429E-02
           3
Time step:                   9 Sim. Time [au]         180.00
O    -0.14916017E-02    0.11197378E+00    0.37920908E-02
H     0.76160743E+00   -0.41550013E+00   -0.71747133E-01
H    -0.73592063E+00   -0.44952697E+00   -0.47135319E-03
           3
Time step:                  10 Sim. Time [au]         200.00
O    -0.21600204E-02    0.11153420E+00    0.42649000E-02
H     0.77113508E+00   -0.41634504E+00   -0.79459458E-01
H    -0.73354574E+00   -0.44647750E+00   -0.88015320E-04
           3
Time step:                  11 Sim. Time [au]         220.00
O    -0.27984785E-02    0.11117956E+00    0.46971667E-02
H     0.78057439E+00   -0.41761439E+00   -0.87142326E-01
H    -0.73340971E+00   -0.44447969E+00    0.32566456E-03
           3
Time step:                  12 Sim. Time [au]         240.00
O    -0.32599039E-02    0.11087598E+00    0.51077624E-02
H     0.78921217E+00   -0.41817046E+00   -0.94191884E-01
H    -0.73557787E+00   -0.44461041E+00    0.69104295E-03
           3
Time step:                  13 Sim. Time [au]         260.00
O    -0.34832558E-02    0.11057770E+00    0.56082363E-02
H     0.79629746E+00   -0.41824466E+00   -0.10101673E+00
H    -0.74015434E+00   -0.44711158E+00    0.11407543E-02
           3
Time step:                  14 Sim. Time [au]         280.00
O    -0.34458325E-02    0.11033650E+00    0.60859120E-02
H     0.80141942E+00   -0.41727346E+00   -0.10750743E+00
H    -0.74645386E+00   -0.45109852E+00    0.16093430E-02
           3
Time step:                  15 Sim. Time [au]         300.00
O    -0.32590541E-02    0.11008405E+00    0.65178268E-02
H     0.80403651E+00   -0.41554594E+00   -0.11369394E+00
H    -0.75371332E+00   -0.45638924E+00    0.24706594E-02
           3
Time step:                  16 Sim. Time [au]         320.00
O    -0.29053069E-02    0.10968239E+00    0.70154593E-02
H     0.80429841E+00   -0.41256845E+00   -0.11957356E+00
H    -0.76042442E+00   -0.46164576E+00    0.33218601E-02
           3
Time step:                  17 Sim. Time [au]         340.00
O    -0.24503654E-02    0.10920245E+00    0.75562322E-02
H     0.80166642E+00   -0.40827140E+00   -0.12576543E+00
H    -0.76615314E+00   -0.46644298E+00    0.42708302E-02
           3
Time step:                  18 Sim. Time [au]         360.00
O    -0.18016376E-02    0.10873939E+00    0.80051080E-02
H     0.79723598E+00   -0.40298309E+00   -0.13202417E+00
H    -0.77003518E+00   -0.47047332E+00    0.51555890E-02
           3
Time step:                  19 Sim. Time [au]         380.00
O    -0.97492361E-03    0.10824502E+00    0.84969823E-02
H     0.79084800E+00   -0.39710701E+00   -0.13816311E+00
H    -0.77190220E+00   -0.47338986E+00    0.57398961E-02
           3
Time step:                  20 Sim. Time [au]         400.00
O    -0.17374359E-03    0.10766371E+00    0.90673170E-02
H     0.78319642E+00   -0.39137316E+00   -0.14424500E+00
H    -0.77159464E+00   -0.47474088E+00    0.66232011E-02
