           6
Time step:                   1 Sim. Time [au]          20.67
C    -0.59676503E-02   -0.10456489E-02    0.33648846E-01
N    -0.89868780E-03   -0.39814384E-02    0.12845223E+01
H     0.10740365E+01    0.92457270E-01   -0.43342971E+00
H     0.90947726E+00   -0.65979878E-01    0.18960956E+01
H    -0.87490597E+00    0.11136291E+00    0.19319373E+01
H    -0.10256222E+01   -0.70554895E-01   -0.48943633E+00
