           3
 Time step:           1
O  -0.5176848413E-03  0.1175521027E+00 -0.8715369379E-03
H   0.7553464623E+00 -0.4751560091E+00  0.1514955033E-01
H  -0.7473029872E+00 -0.4619900269E+00 -0.2036743335E-02
           3
 Time step:           2
O  -0.9175293312E-03  0.1171804788E+00 -0.1890786905E-02
H   0.7525413452E+00 -0.4756082961E+00  0.2795042531E-01
H  -0.7392004781E+00 -0.4567047923E+00 -0.4465061054E-02
           3
 Time step:           3
O  -0.1193103400E-02  0.1169023272E+00 -0.3123227018E-02
H   0.7484651583E+00 -0.4746138623E+00  0.3735843358E-01
H  -0.7327363655E+00 -0.4541354666E+00 -0.7516607598E-02
           3
 Time step:           4
O  -0.1326567648E-02  0.1166917974E+00 -0.4651983288E-02
H   0.7431697471E+00 -0.4728667316E+00  0.4429574408E-01
H  -0.7281225032E+00 -0.4529368881E+00 -0.1152819097E-01
           3
 Time step:           5
O  -0.1302714853E-02  0.1165321500E+00 -0.6559890693E-02
H   0.7368467556E+00 -0.4706437856E+00  0.4981483966E-01
H  -0.7255698830E+00 -0.4528023199E+00 -0.1693709937E-01
           3
 Time step:           6
O  -0.1105522043E-02  0.1164228566E+00 -0.8869474044E-02
H   0.7298282970E+00 -0.4681410688E+00  0.5466762352E-01
H  -0.7252935089E+00 -0.4537467104E+00 -0.2409523703E-01
           3
 Time step:           7
O  -0.7086445044E-03  0.1163704077E+00 -0.1145602245E-01
H   0.7225820111E+00 -0.4655974520E+00  0.5938662457E-01
H  -0.7276701874E+00 -0.4558161794E+00 -0.3278352735E-01
           3
 Time step:           8
O  -0.6705012628E-04  0.1163812573E+00 -0.1407455906E-01
H   0.7156391964E+00 -0.4633037740E+00  0.6433853998E-01
H  -0.7334404528E+00 -0.4590299704E+00 -0.4217907038E-01
           3
 Time step:           9
O   0.8743386122E-03  0.1164587531E+00 -0.1653029256E-01
H   0.7094752615E+00 -0.4616016574E+00  0.6976166819E-01
H  -0.7435479260E+00 -0.4633503178E+00 -0.5159314790E-01
           3
 Time step:          10
O   0.2136056186E-02  0.1166028624E+00 -0.1875672382E-01
H   0.7044323143E+00 -0.4609571814E+00  0.7587297688E-01
H  -0.7575037554E+00 -0.4686093031E+00 -0.6060486117E-01
           3
 Time step:          11
O   0.3651394479E-02  0.1168161038E+00 -0.2077290400E-01
H   0.7007918938E+00 -0.4621397998E+00  0.8290000795E-01
H  -0.7714545532E+00 -0.4744197470E+00 -0.6894289012E-01
           3
 Time step:          12
O   0.5280006354E-02  0.1171112933E+00 -0.2262921800E-01
H   0.6991131818E+00 -0.4664917218E+00  0.9100949784E-01
H  -0.7811954498E+00 -0.4800961801E+00 -0.7648008364E-01
           3
 Time step:          13
O   0.6887988047E-02  0.1174887302E+00 -0.2437709389E-01
H   0.7006237568E+00 -0.4757982204E+00  0.1001524935E+00
H  -0.7855556044E+00 -0.4845838704E+00 -0.8322654679E-01
           3
 Time step:          14
O   0.8419873148E-02  0.1178764140E+00 -0.2605593414E-01
H   0.7062089272E+00 -0.4900881854E+00  0.1098780206E+00
H  -0.7852361987E+00 -0.4865243199E+00 -0.8929055901E-01
           3
 Time step:          15
O   0.9913322256E-02  0.1181219346E+00 -0.2769114547E-01
H   0.7145158357E+00 -0.5049589783E+00  0.1193219694E+00
H  -0.7820559407E+00 -0.4844152880E+00 -0.9484435228E-01
           3
 Time step:          16
O   0.1145462124E-01  0.1180569823E+00 -0.2930302076E-01
H   0.7233691501E+00 -0.5157673687E+00  0.1275244688E+00
H  -0.7779417089E+00 -0.4768358568E+00 -0.1001228575E+00
           3
 Time step:          17
O   0.1311880032E-01  0.1175287332E+00 -0.3092164264E-01
H   0.7311979073E+00 -0.5218018207E+00  0.1337888737E+00
H  -0.7731470748E+00 -0.4635942863E+00 -0.1055004411E+00
           3
 Time step:          18
O   0.1491958752E-01  0.1163843449E+00 -0.3261117744E-01
H   0.7371657069E+00 -0.5239901518E+00  0.1378599051E+00
H  -0.7673829586E+00 -0.4479327802E+00 -0.1117279875E+00
           3
 Time step:          19
O   0.1684632066E-01  0.1144703846E+00 -0.3451465078E-01
H   0.7409959828E+00 -0.5230293078E+00  0.1400038381E+00
H  -0.7608303459E+00 -0.4345757008E+00 -0.1202732757E+00
           3
 Time step:          20
O   0.1891288423E-01  0.1117368138E+00 -0.3688447779E-01
H   0.7426601002E+00 -0.5191849916E+00  0.1408172036E+00
H  -0.7540228001E+00 -0.4248075436E+00 -0.1330024797E+00
