           3
 Time step:           1
O  -0.5176848413E-03  0.1177620013E+00 -0.8715369379E-03
H   0.7579293234E+00 -0.4768217674E+00  0.1514955033E-01
H  -0.7498858484E+00 -0.4636557851E+00 -0.2036743335E-02
           3
 Time step:           2
O  -0.9209442131E-03  0.1178172461E+00 -0.1896106266E-02
H   0.7622380483E+00 -0.4806086449E+00  0.2802463566E-01
H  -0.7482075221E+00 -0.4613145479E+00 -0.4482732455E-02
           3
 Time step:           3
O  -0.1207613396E-02  0.1180261250E+00 -0.3143049456E-02
H   0.7696541030E+00 -0.4834088473E+00  0.3758183981E-01
H  -0.7516236339E+00 -0.4620734680E+00 -0.7588497750E-02
           3
 Time step:           4
O  -0.1360841948E-02  0.1183042083E+00 -0.4696343592E-02
H   0.7794885792E+00 -0.4855505889E+00  0.4471804718E-01
H  -0.7601963261E+00 -0.4645678934E+00 -0.1170817803E-01
           3
 Time step:           5
O  -0.1364112590E-02  0.1186057280E+00 -0.6634835756E-02
H   0.7903051721E+00 -0.4871060971E+00  0.5045220312E-01
H  -0.7729628606E+00 -0.4683333431E+00 -0.1728738965E-01
           3
 Time step:           6
O  -0.1197739117E-02  0.1188865955E+00 -0.8970740872E-02
H   0.8003218381E+00 -0.4878887495E+00  0.5548333225E-01
H  -0.7866243713E+00 -0.4729747111E+00 -0.2465826004E-01
           3
 Time step:           7
O  -0.8195553696E-03  0.1191001782E+00 -0.1156717148E-01
H   0.8083387646E+00 -0.4875835782E+00  0.6026525245E-01
H  -0.7976494664E+00 -0.4780178914E+00 -0.3354053339E-01
           3
 Time step:           8
O  -0.1354896743E-03  0.1192036635E+00 -0.1417379202E-01
H   0.8140773668E+00 -0.4857850154E+00  0.6505721010E-01
H  -0.8052745387E+00 -0.4829491601E+00 -0.4304591774E-01
           3
 Time step:           9
O   0.1014797652E-02  0.1191517792E+00 -0.1659610286E-01
H   0.8178081727E+00 -0.4819124928E+00  0.6997612942E-01
H  -0.8103190436E+00 -0.4872184273E+00 -0.5246361169E-01
           3
 Time step:          10
O   0.2809378283E-02  0.1188755199E+00 -0.1876903056E-01
H   0.8199860082E+00 -0.4751104416E+00  0.7513863730E-01
H  -0.8134765865E+00 -0.4904218584E+00 -0.6140398620E-01
           3
 Time step:          11
O   0.5289673959E-02  0.1182369001E+00 -0.2071369545E-01
H   0.8211480149E+00 -0.4644872760E+00  0.8074383426E-01
H  -0.8149996832E+00 -0.4922887995E+00 -0.6966476446E-01
           3
 Time step:          12
O   0.8195091454E-02  0.1169548054E+00 -0.2248482248E-01
H   0.8219610652E+00 -0.4504849188E+00  0.8709921532E-01
H  -0.8148329640E+00 -0.4925137224E+00 -0.7718629151E-01
           3
 Time step:          13
O   0.1104579322E-01  0.1146336407E+00 -0.2414347601E-01
H   0.8233080842E+00 -0.4364940437E+00  0.9461468390E-01
H  -0.8127263998E+00 -0.4905965135E+00 -0.8401676822E-01
           3
 Time step:          14
O   0.1348170990E-01  0.1112272261E+00 -0.2574668917E-01
H   0.8265972442E+00 -0.4263445936E+00  0.1037004082E+00
H  -0.8082704225E+00 -0.4856806666E+00 -0.9027793788E-01
           3
 Time step:          15
O   0.1544387562E-01  0.1075373944E+00 -0.2734474993E-01
H   0.8348224293E+00 -0.4206759559E+00  0.1144610282E+00
H  -0.8006541079E+00 -0.4767343921E+00 -0.9614781935E-01
           3
 Time step:          16
O   0.1709228283E-01  0.1044880499E+00 -0.2898352598E-01
H   0.8514072102E+00 -0.4179437657E+00  0.1261893142E+00
H  -0.7876283087E+00 -0.4639836125E+00 -0.1018718950E+00
           3
 Time step:          17
O   0.1869057597E-01  0.1022756534E+00 -0.3071646412E-01
H   0.8710822971E+00 -0.4164365180E+00  0.1371305384E+00
H  -0.7667970532E+00 -0.4506087028E+00 -0.1078348250E+00
           3
 Time step:          18
O   0.2051666176E-01  0.1006950369E+00 -0.3264595190E-01
H   0.8838068250E+00 -0.4149790461E+00  0.1452686273E+00
H  -0.7478326902E+00 -0.4405789418E+00 -0.1147326139E+00
           3
 Time step:          19
O   0.2273836228E-01  0.9954109953E-01 -0.3499006441E-01
H   0.8897387587E+00 -0.4130101261E+00  0.1498963370E+00
H  -0.7404228001E+00 -0.4353477230E+00 -0.1236444789E+00
           3
 Time step:          20
O   0.2532833311E-01  0.9867388864E-01 -0.3803628958E-01
H   0.8918151063E+00 -0.4103175175E+00  0.1520596206E+00
H  -0.7405614723E+00 -0.4345516100E+00 -0.1354918896E+00
