           3
Time step:                   1 Sim. Time [au]          20.00
O     0.00000000E+00    0.11800000E+00    0.00000000E+00
H     0.75551924E+00   -0.47449440E+00    0.12789039E-01
H    -0.74878293E+00   -0.46346736E+00   -0.16945393E-02
           3
Time step:                   2 Sim. Time [au]          40.00
O     0.00000000E+00    0.11800000E+00    0.00000000E+00
H     0.75291054E+00   -0.47460453E+00    0.24672243E-01
H    -0.74148178E+00   -0.45853866E+00   -0.37176304E-02
           3
Time step:                   3 Sim. Time [au]          60.00
O     0.00000000E+00    0.11800000E+00    0.00000000E+00
H     0.74908989E+00   -0.47345520E+00    0.34428519E-01
H    -0.73518646E+00   -0.45588648E+00   -0.62702712E-02
           3
Time step:                   4 Sim. Time [au]          80.00
O     0.00000000E+00    0.11800000E+00    0.00000000E+00
H     0.74411583E+00   -0.47165303E+00    0.42119789E-01
H    -0.73017164E+00   -0.45438922E+00   -0.96530421E-02
           3
Time step:                   5 Sim. Time [au]         100.00
O     0.00000000E+00    0.11800000E+00    0.00000000E+00
H     0.73815555E+00   -0.46943473E+00    0.48315433E-01
H    -0.72670040E+00   -0.45371873E+00   -0.14274436E-01
           3
Time step:                   6 Sim. Time [au]         120.00
O     0.00000000E+00    0.11800000E+00    0.00000000E+00
H     0.73148009E+00   -0.46697309E+00    0.53606133E-01
H    -0.72500009E+00   -0.45387694E+00   -0.20505133E-01
           3
Time step:                   7 Sim. Time [au]         140.00
O     0.00000000E+00    0.11800000E+00    0.00000000E+00
H     0.72446801E+00   -0.46448668E+00    0.58487119E-01
H    -0.72537955E+00   -0.45493991E+00   -0.28238467E-01
           3
Time step:                   8 Sim. Time [au]         160.00
O     0.00000000E+00    0.11800000E+00    0.00000000E+00
H     0.71756248E+00   -0.46224297E+00    0.63368119E-01
H    -0.72845530E+00   -0.45698116E+00   -0.36821469E-01
           3
Time step:                   9 Sim. Time [au]         180.00
O     0.00000000E+00    0.11800000E+00    0.00000000E+00
H     0.71118020E+00   -0.46055721E+00    0.68617661E-01
H    -0.73536425E+00   -0.46005764E+00   -0.45695848E-01
           3
Time step:                  10 Sim. Time [au]         200.00
O     0.00000000E+00    0.11800000E+00    0.00000000E+00
H     0.70562976E+00   -0.45985091E+00    0.74623727E-01
H    -0.74708942E+00   -0.46414947E+00   -0.54487983E-01
           3
Time step:                  11 Sim. Time [au]         220.00
O    -0.10459289E-03    0.11801894E+00   -0.96911705E-05
H     0.70112518E+00   -0.46082013E+00    0.81846249E-01
H    -0.76182210E+00   -0.46902606E+00   -0.62885292E-01
           3
Time step:                  12 Sim. Time [au]         240.00
O    -0.63011495E-03    0.11803965E+00   -0.59384252E-04
H     0.69797002E+00   -0.46477203E+00    0.90814947E-01
H    -0.77469814E+00   -0.47413025E+00   -0.70650883E-01
           3
Time step:                  13 Sim. Time [au]         260.00
O    -0.17914652E-02    0.11798717E+00   -0.18173291E-03
H     0.69679784E+00   -0.47365429E+00    0.10191283E+00
H    -0.78292388E+00   -0.47855670E+00   -0.77672905E-01
           3
Time step:                  14 Sim. Time [au]         280.00
O    -0.37579194E-02    0.11772235E+00   -0.42255364E-03
H     0.69813795E+00   -0.48787783E+00    0.11465875E+00
H    -0.78670976E+00   -0.48113353E+00   -0.83967827E-01
           3
Time step:                  15 Sim. Time [au]         300.00
O    -0.65455548E-02    0.11706116E+00   -0.83260458E-03
H     0.70130110E+00   -0.50313397E+00    0.12688521E+00
H    -0.78689201E+00   -0.48059325E+00   -0.89654471E-01
           3
Time step:                  16 Sim. Time [au]         320.00
O    -0.98114232E-02    0.11582033E+00   -0.14532885E-02
H     0.70497289E+00   -0.51448984E+00    0.13588514E+00
H    -0.78405147E+00   -0.47572657E+00   -0.94947033E-01
           3
Time step:                  17 Sim. Time [au]         340.00
O    -0.12864526E-01    0.11385995E+00   -0.23119220E-02
H     0.70813871E+00   -0.52113486E+00    0.14105457E+00
H    -0.77859266E+00   -0.46586525E+00   -0.10021419E+00
           3
Time step:                  18 Sim. Time [au]         360.00
O    -0.15191752E-01    0.11118291E+00   -0.34309574E-02
H     0.71009320E+00   -0.52404746E+00    0.14366135E+00
H    -0.77092105E+00   -0.45230633E+00   -0.10614927E+00
           3
Time step:                  19 Sim. Time [au]         380.00
O    -0.16736152E-01    0.10809654E+00   -0.48387555E-02
H     0.71020358E+00   -0.52397692E+00    0.14490734E+00
H    -0.76153609E+00   -0.43887846E+00   -0.11400203E+00
           3
Time step:                  20 Sim. Time [au]         400.00
O    -0.17646951E-01    0.10516666E+00   -0.65704623E-02
H     0.70763634E+00   -0.52121378E+00    0.14539958E+00
H    -0.75111007E+00   -0.42878871E+00   -0.12545147E+00
