           3
Time step:                   1 Sim. Time [au]          20.00
O     0.00000000E+00    0.11800000E+00    0.00000000E+00
H     0.75724474E+00   -0.47303392E+00    0.13855714E-02
H    -0.74354177E+00   -0.46287009E+00    0.13855714E-02
           3
Time step:                   2 Sim. Time [au]          40.00
O     0.46788525E-04    0.11792999E+00    0.16481444E-06
H     0.75620808E+00   -0.47230103E+00    0.30329220E-02
H    -0.73348168E+00   -0.45795468E+00    0.30358698E-02
