           3
Time step:                   1 Sim. Time [au]          20.00
O     0.00000000E+00    0.11800000E+00    0.00000000E+00
H     0.75724487E+00   -0.47303403E+00    0.13856067E-02
H    -0.74354708E+00   -0.46287261E+00    0.13856067E-02
           3
Time step:                   2 Sim. Time [au]          40.00
O     0.00000000E+00    0.11800000E+00    0.00000000E+00
H     0.75620396E+00   -0.47230860E+00    0.19365039E-02
H    -0.73349721E+00   -0.45795962E+00    0.19252301E-02
