           3
Time step:                   1 Sim. Time [au]          20.00
O    -0.51768484E-03    0.11755210E+00   -0.87153694E-03
H     0.75534646E+00   -0.47515601E+00    0.15149550E-01
H    -0.74730299E+00   -0.46199003E+00   -0.20367433E-02
           3
Time step:                   2 Sim. Time [au]          40.00
O    -0.91752933E-03    0.11718048E+00   -0.18907869E-02
H     0.75254135E+00   -0.47560830E+00    0.27950425E-01
H    -0.73920048E+00   -0.45670479E+00   -0.44650611E-02
           3
Time step:                   3 Sim. Time [au]          60.00
O    -0.11931034E-02    0.11690233E+00   -0.31232270E-02
H     0.74846516E+00   -0.47461386E+00    0.37358434E-01
H    -0.73273637E+00   -0.45413547E+00   -0.75166076E-02
           3
Time step:                   4 Sim. Time [au]          80.00
O    -0.13265676E-02    0.11669180E+00   -0.46519833E-02
H     0.74316975E+00   -0.47286673E+00    0.44295744E-01
H    -0.72812250E+00   -0.45293689E+00   -0.11528191E-01
           3
Time step:                   5 Sim. Time [au]         100.00
O    -0.13027149E-02    0.11653215E+00   -0.65598907E-02
H     0.73684676E+00   -0.47064379E+00    0.49814840E-01
H    -0.72556988E+00   -0.45280232E+00   -0.16937099E-01
           3
Time step:                   6 Sim. Time [au]         120.00
O    -0.11055220E-02    0.11642286E+00   -0.88694740E-02
H     0.72982830E+00   -0.46814107E+00    0.54667624E-01
H    -0.72529351E+00   -0.45374671E+00   -0.24095237E-01
           3
Time step:                   7 Sim. Time [au]         140.00
O    -0.70864450E-03    0.11637041E+00   -0.11456022E-01
H     0.72258201E+00   -0.46559745E+00    0.59386625E-01
H    -0.72767019E+00   -0.45581618E+00   -0.32783527E-01
           3
Time step:                   8 Sim. Time [au]         160.00
O    -0.67050126E-04    0.11638126E+00   -0.14074559E-01
H     0.71563920E+00   -0.46330377E+00    0.64338540E-01
H    -0.73344045E+00   -0.45902997E+00   -0.42179070E-01
           3
Time step:                   9 Sim. Time [au]         180.00
O     0.87433861E-03    0.11645875E+00   -0.16530293E-01
H     0.70947526E+00   -0.46160166E+00    0.69761668E-01
H    -0.74354793E+00   -0.46335032E+00   -0.51593148E-01
           3
Time step:                  10 Sim. Time [au]         200.00
O     0.21360562E-02    0.11660286E+00   -0.18756724E-01
H     0.70443231E+00   -0.46095718E+00    0.75872977E-01
H    -0.75750376E+00   -0.46860930E+00   -0.60604861E-01
           3
Time step:                  11 Sim. Time [au]         220.00
O     0.36513945E-02    0.11681610E+00   -0.20772904E-01
H     0.70079189E+00   -0.46213980E+00    0.82900008E-01
H    -0.77145455E+00   -0.47441975E+00   -0.68942890E-01
           3
Time step:                  12 Sim. Time [au]         240.00
O     0.52800064E-02    0.11711129E+00   -0.22629218E-01
H     0.69911318E+00   -0.46649172E+00    0.91009498E-01
H    -0.78119545E+00   -0.48009618E+00   -0.76480084E-01
           3
Time step:                  13 Sim. Time [au]         260.00
O     0.68879880E-02    0.11748873E+00   -0.24377094E-01
H     0.70062376E+00   -0.47579822E+00    0.10015249E+00
H    -0.78555560E+00   -0.48458387E+00   -0.83226547E-01
           3
Time step:                  14 Sim. Time [au]         280.00
O     0.84198731E-02    0.11787641E+00   -0.26055934E-01
H     0.70620893E+00   -0.49008819E+00    0.10987802E+00
H    -0.78523620E+00   -0.48652432E+00   -0.89290559E-01
           3
Time step:                  15 Sim. Time [au]         300.00
O     0.99133223E-02    0.11812193E+00   -0.27691145E-01
H     0.71451584E+00   -0.50495898E+00    0.11932197E+00
H    -0.78205594E+00   -0.48441529E+00   -0.94844352E-01
           3
Time step:                  16 Sim. Time [au]         320.00
O     0.11454621E-01    0.11805698E+00   -0.29303021E-01
H     0.72336915E+00   -0.51576737E+00    0.12752447E+00
H    -0.77794171E+00   -0.47683586E+00   -0.10012286E+00
           3
Time step:                  17 Sim. Time [au]         340.00
O     0.13118800E-01    0.11752873E+00   -0.30921643E-01
H     0.73119791E+00   -0.52180182E+00    0.13378887E+00
H    -0.77314707E+00   -0.46359429E+00   -0.10550044E+00
           3
Time step:                  18 Sim. Time [au]         360.00
O     0.14919588E-01    0.11638434E+00   -0.32611177E-01
H     0.73716571E+00   -0.52399015E+00    0.13785991E+00
H    -0.76738296E+00   -0.44793278E+00   -0.11172799E+00
           3
Time step:                  19 Sim. Time [au]         380.00
O     0.16846321E-01    0.11447038E+00   -0.34514651E-01
H     0.74099598E+00   -0.52302931E+00    0.14000384E+00
H    -0.76083035E+00   -0.43457570E+00   -0.12027328E+00
           3
Time step:                  20 Sim. Time [au]         400.00
O     0.18912884E-01    0.11173681E+00   -0.36884478E-01
H     0.74266010E+00   -0.51918499E+00    0.14081720E+00
H    -0.75402280E+00   -0.42480754E+00   -0.13300248E+00
