           3
Time step:                   1 Sim. Time [au]          20.00
O     0.00000000E+00    0.11800000E+00    0.00000000E+00
H     0.75724474E+00   -0.47303392E+00    0.13855714E-02
H    -0.74354177E+00   -0.46287009E+00    0.13855714E-02
           3
Time step:                   2 Sim. Time [au]          40.00
O     0.00000000E+00    0.11800000E+00    0.00000000E+00
H     0.75620810E+00   -0.47230101E+00    0.30328798E-02
H    -0.73347947E+00   -0.45795510E+00    0.30358275E-02
           3
Time step:                   3 Sim. Time [au]          60.00
O     0.00000000E+00    0.11800000E+00    0.00000000E+00
H     0.75391646E+00   -0.47064291E+00    0.50949777E-02
H    -0.72616611E+00   -0.45569119E+00    0.51126200E-02
           3
Time step:                   4 Sim. Time [au]          80.00
O     0.00000000E+00    0.11800000E+00    0.00000000E+00
H     0.75040666E+00   -0.46846191E+00    0.78033393E-02
H    -0.72137377E+00   -0.45489368E+00    0.78632093E-02
           3
Time step:                   5 Sim. Time [au]         100.00
O     0.00000000E+00    0.11800000E+00    0.00000000E+00
H     0.74574177E+00   -0.46588098E+00    0.11480406E-01
H    -0.71906299E+00   -0.45527746E+00    0.11633863E-01
           3
Time step:                   6 Sim. Time [au]         120.00
O     0.00000000E+00    0.11800000E+00    0.00000000E+00
H     0.74001359E+00   -0.46300591E+00    0.16438099E-01
H    -0.71928725E+00   -0.45685700E+00    0.16761705E-01
           3
Time step:                   7 Sim. Time [au]         140.00
O     0.00000000E+00    0.11800000E+00    0.00000000E+00
H     0.73338266E+00   -0.46001385E+00    0.22641218E-01
H    -0.72231034E+00   -0.45966606E+00    0.23211879E-01
           3
Time step:                   8 Sim. Time [au]         160.00
O     0.00000000E+00    0.11800000E+00    0.00000000E+00
H     0.72613332E+00   -0.45714918E+00    0.29658954E-01
H    -0.72876058E+00   -0.46368498E+00    0.30505951E-01
           3
Time step:                   9 Sim. Time [au]         180.00
O     0.00000000E+00    0.11800000E+00    0.00000000E+00
H     0.71870318E+00   -0.45471904E+00    0.37193339E-01
H    -0.73944397E+00   -0.46880182E+00    0.38256297E-01
           3
Time step:                  10 Sim. Time [au]         200.00
O     0.00000000E+00    0.11800000E+00    0.00000000E+00
H     0.71164709E+00   -0.45312885E+00    0.45142751E-01
H    -0.75376336E+00   -0.47472330E+00    0.46230462E-01
           3
Time step:                  11 Sim. Time [au]         220.00
O    -0.14080892E-03    0.11799823E+00    0.80534214E-07
H     0.70555901E+00   -0.45300475E+00    0.53443098E-01
H    -0.76780781E+00   -0.48094061E+00    0.54219549E-01
           3
Time step:                  12 Sim. Time [au]         240.00
O    -0.81949486E-03    0.11794591E+00    0.36978417E-05
H     0.70105371E+00   -0.45555325E+00    0.61982386E-01
H    -0.77724984E+00   -0.48681645E+00    0.62028016E-01
           3
Time step:                  13 Sim. Time [au]         260.00
O    -0.22838077E-02    0.11775310E+00    0.17527912E-04
H     0.69886952E+00   -0.46302470E+00    0.70555625E-01
H    -0.78096970E+00   -0.49162120E+00    0.69515969E-01
           3
Time step:                  14 Sim. Time [au]         280.00
O    -0.46882965E-02    0.11727321E+00    0.56210140E-04
H     0.69984260E+00   -0.47704960E+00    0.78841367E-01
H    -0.78039109E+00   -0.49442078E+00    0.76632425E-01
           3
Time step:                  15 Sim. Time [au]         300.00
O    -0.78817342E-02    0.11632681E+00    0.14734574E-03
H     0.70396219E+00   -0.49366019E+00    0.86415736E-01
H    -0.77772623E+00   -0.49397373E+00    0.83440072E-01
           3
Time step:                  16 Sim. Time [au]         320.00
O    -0.11216725E-01    0.11474139E+00    0.32835606E-03
H     0.70995004E+00   -0.50644727E+00    0.92851754E-01
H    -0.77408397E+00   -0.48887524E+00    0.90165093E-01
           3
Time step:                  17 Sim. Time [au]         340.00
O    -0.13954899E-01    0.11242060E+00    0.63749050E-03
H     0.71639710E+00   -0.51410217E+00    0.97859988E-01
H    -0.76962021E+00   -0.47837823E+00    0.97316164E-01
           3
Time step:                  18 Sim. Time [au]         360.00
O    -0.15863636E-01    0.10948463E+00    0.11122376E-02
H     0.72229432E+00   -0.51781241E+00    0.10139209E+00
H    -0.76455608E+00   -0.46415382E+00    0.10585247E+00
           3
Time step:                  19 Sim. Time [au]         380.00
O    -0.17083771E-01    0.10637563E+00    0.17972457E-02
H     0.72703084E+00   -0.51839922E+00    0.10365186E+00
H    -0.75956997E+00   -0.45042269E+00    0.11706211E+00
           3
Time step:                  20 Sim. Time [au]         400.00
O    -0.17795115E-01    0.10362947E+00    0.27580715E-02
H     0.73028048E+00   -0.51605009E+00    0.10495199E+00
H    -0.75557130E+00   -0.44006416E+00    0.13125745E+00
