           1
     Units: angs.;  Time step:           1  ;  Sim. Time [au]:          20.00
Ne   -0.12831198E-02    0.11703766E+00    0.00000000E+00
           1
     Units: angs.;  Time step:           2  ;  Sim. Time [au]:          40.00
Ne   -0.51729409E-02    0.11419424E+00    0.00000000E+00
