1
Units: a.u.;  Time step: 1
Ne -0.2443860422E-03 -0.1797959931E-03  0.0000000000E+00
1
Units: a.u.;  Time step: 2
Ne -0.4965534863E-03 -0.3513445048E-03  0.0000000000E+00
