           3
Time step:                   1 Sim. Time [au]          20.00
O     0.74882117E-03    0.11721115E+00    0.52819796E-03
H     0.75097634E+00   -0.46201846E+00    0.10479453E-02
H    -0.75994420E+00   -0.46946219E+00    0.10479453E-02
