           3
Time step:                   1 Sim. Time [au]          20.00
O    -0.61360661E-07    0.11798960E+00   -0.23219057E-09
H     0.75693652E+00   -0.47191813E+00   -0.14713543E-08
H    -0.75693758E+00   -0.47191813E+00   -0.14713543E-08
