        1513
 Time step:        2450
 C    16.518614560997104        32.448708938704108        24.014509237455108     
 C    17.255999944696903        31.982620998682268        25.150184268225750     
 C    18.556983897686134        31.431382226376808        25.017309034564043     
 C    19.259540168259921        31.798865051943690        23.869330521262192     
 C    18.673578213692057        32.463493402038694        22.740299914945187     
 C    17.300820807062994        32.825144504579903        22.826962718034231     
 H    16.656390995873959        31.533207484846695        25.889284414779713     
 H    18.904889681723198        30.977180380598067        25.889766426148238     
 H    20.254912442438247        31.206670175567577        23.906256997377451     
 H    19.372856816359850        32.872936343177678        22.033070546073219     
 H    16.768736564556146        33.102298019978470        21.985637694757198     
 O    15.130493449711228        32.704266064704370        24.119434411424198     
 H    14.811491699523735        32.761132086937856        23.209696304371125     
 O    15.485212919272129        33.203389211297626        19.694368907116537     
 H    14.803480780489323        33.254622982533988        20.540966286031679     
 H    15.814963070956061        32.156485239677515        19.620438541020377     
 O    14.230894283632345        35.675017053680754        23.823110305328836     
 H    13.652792087466127        34.861596606977642        23.942053435316257     
 H    13.785980649450009        36.163293002724437        24.501947737805871     
 O    14.012024211097582        33.225942494798915        21.819411152588810     
 H    13.103612272105224        34.341628813651518        21.846673287801018     
 H    13.192281196367233        32.677119885022563        21.556860886855425     
 O    12.411113232685405        30.823258201710487        23.737621465824635     
 H    13.449278984930022        30.617436336290204        23.475175986937206     
 H    12.506555692435274        31.863669205049618        23.950153280483480     
 O    15.304937201338292        36.734399092678530        21.749918648724826     
 H    16.077823512273909        37.129284282859757        22.264599590460683     
 H    14.726399191970144        36.134590929312182        22.409039063864061     
 O    13.879410329429692        33.669558461047593        26.960531022146554     
 H    13.965833844340368        32.620328561454357        27.318705643811409     
 H    13.952113623316935        33.398840594255873        25.950413066896740     
 O    15.802552413706174        36.761599206715303        25.989521572045089     
 H    15.519592614858487        36.354019246671555        25.185659559124716     
 H    16.265310716140096        35.849473816800213        26.723179206414041     
 O    16.689110747655477        35.649137146607615        19.790072259820008     
 H    16.359101814907955        34.620189023622039        19.863225707392804     
 H    16.104389436407889        36.131223266004064        20.450871886248912     
 O    18.388322807768130        29.636520891675293        20.389579397279697     
 H    18.992271164312349        30.421490695163950        20.528255655819841     
 H    17.481521316160642        30.313750516951426        20.977986353646781     
 O    16.895635886534748        28.915239024590292        24.016750250989798     
 H    17.822501030426736        28.438316215422532        23.434705352408535     
 H    17.220674207862078        29.807772103059008        23.970865905079723     
 O    20.539180085039888        35.288998961701473        22.794649063013907     
 H    21.312568848448901        34.764003275210285        23.043940803112211     
 H    20.131524048584417        35.372990968441925        23.615813540366414     
 O    12.243070699040580        31.310197921250520        21.109583793545841     
 H    12.297455563594772        30.697602251551999        22.042821756591881     
 H    11.568823666628868        31.994392554080733        21.487032656015671     
 O    16.460429363939291        34.518867970399050        27.352746460493840     
 H    15.563206575766461        34.209620366251315        27.258834859620116     
 H    17.081163260967145        34.132296526436775        26.689424432389028     
 O    14.860498704053567        29.662555874784275        22.366823672142242     
 H    15.609862412342521        29.304316110934707        22.964409107204254     
 H    14.252239350735511        28.931286548205733        22.445146875549469     
 O    20.190713879430184        32.141075644001177        20.135962305432312     
 H    19.797677700917809        32.013009220280210        19.322257230715529     
 H    21.155445846086437        31.439581884938338        19.914896727111479     
 O    12.333784829295107        33.998968931956007        24.282297819896964     
 H    11.704187559375224        34.559025410956956        25.030021544928605     
 H    11.781748167366491        34.277308015625934        23.503323568543397     
 O    18.721780459267752        35.003488652610130        24.999835521824064     
 H    18.907555586633578        34.028486316228175        24.693717281519625     
 H    19.189885293953729        35.515790577170741        25.701702717171511     
 O    17.497279655531159        37.222834034927907        23.174656215004369     
 H    17.710071349947199        36.368532096770714        23.865983913254524     
 H    18.006152993216375        37.042974274516254        22.431528501180992     
 O    11.290684447271136        34.909074193391127        26.501412492993307     
 H    11.720564439691826        35.762422912240702        26.351391191045611     
 H    12.035408039300773        34.363986046604317        26.944000739311324     
 O    11.950554473097460        34.719789325715517        21.535515592524987     
 H    12.113884782865398        35.679016171618777        21.443032676523956     
 H    11.788502866692724        34.383021366751173        20.450571164116212     
 O    15.805136285861298        30.636913045437488        20.205913368159873     
 H    15.394997375015024        30.030937802320842        19.602874548089037     
 H    15.328359158319149        30.218822891934401        21.150388812927943     
 O    11.677263869061766        34.867070432622491        18.856653641126847     
 H    12.480389623401386        34.536753024945938        18.240683798368654     
 H    10.962030305594656        34.354327946447832        18.314417448442061     
 O    18.382268320613495        31.344927059706176        17.895784520591022     
 H    17.446260185856719        31.745017019791820        18.117439445435316     
 H    18.499287585718580        30.436290726480721        18.302583416330005     
 O    19.064829476206391        28.201319701136189        22.640429275940711     
 H    18.931235727000036        28.717006909001679        21.739701330802639     
 H    18.932260243717355        27.226769470989744        22.267951092329774     
 O    14.110243974931201        34.463117934059852        17.603857090967480     
 H    14.323638674013495        34.079951379529739        16.883688837112231     
 H    14.680809028970547        34.042261265934933        18.312035141363086     
 O    12.968816931132858        37.195963760637618        25.851055549728631     
 H    13.874649559120925        37.018109727080528        26.068904371691705     
 H    13.182298142520910        38.224555155104078        25.489469716603686     
 O    18.958882275548600        36.391866778899491        20.934345863266692     
 H    18.348312633181390        35.854652022167279        20.542569489693179     
 H    19.728460195487827        35.922367093923619        21.311906481863943     
 O    12.857667952892934        37.429142780247716        21.167480368908052     
 H    13.811916312748439        37.380881622797268        21.557922954719391     
 H    12.722862197560811        38.217895006637839        20.654270570995489     
 O    15.107490682027349        29.372139774399521        25.895623092295661     
 H    14.322354798133913        28.895004357377768        25.498608364318464     
 H    15.938899076452536        29.296227946421570        25.428554898219147     
 O    14.162017023633778        31.274586306875985        27.752236843256163     
 H    13.308720805351149        30.855786350800066        27.706121145670291     
 H    14.631288608727349        30.652765856117416        27.079448798738927     
 O    14.185518837922075        36.744499675496755        29.484587100857802     
 H    13.358107080679568        37.474082135592695        29.492829753289492     
 H    14.985030861611095        37.080252105572860        29.321899478441708     
 O    12.152364435277144        28.777410741442218        18.212309370942670     
 H    12.993737728436482        29.202181870782571        17.792292196361370     
 H    12.516991971925878        27.907130718718076        18.322315608052637     
 O    21.311643953376539        31.050772920724654        26.740532004448411     
 H    21.772274072053360        30.477553165299796        26.182606867730797     
 H    21.879096217839226        31.826115713949619        26.744409384839738     
 O    9.3158602850599639        29.799155884451942        25.935882645200074     
 H    9.3975896874826894        28.877342682882109        25.479411601994705     
 H    9.0286181755750370        30.403384223150969        25.253794580276029     
 O    20.413742123235203        28.988678296769816        30.257680799750087     
 H    19.590796679160370        28.754422044070161        30.760102709992545     
 H    20.745926216477145        28.176234241319246        30.498038255500909     
 O    20.951307166966124        29.425001447779163        18.490108326046048     
 H    20.460169601747790        29.653210351862541        17.574581479706751     
 H    21.720863395026750        29.076099500829706        18.385671513432857     
 O    8.8415979226486705        31.116656682296043        20.740837115064224     
 H    8.6822870239764800        30.788069707324425        20.089777045603679     
 H    8.7303459895762909        32.111860871155301        20.426802677543161     
 O    18.232971212737016        33.362770168330940        28.947615160080101     
 H    17.840232150276609        32.456978461869667        29.154518324775150     
 H    17.496692339356422        33.770377313023936        28.589980999295438     
 O    17.833483148123381        38.620276060561523        25.860165487652285     
 H    18.280839212874564        38.157852781055134        26.481737535210193     
 H    16.847652670277057        38.091569573606378        25.905048701719817     
 O    15.436354162007516        37.195305478283792        17.546324027589396     
 H    16.007472196177496        36.847618504220286        18.180049656309325     
 H    14.647529869934393        36.586579177102422        17.422342111424094     
 O    14.987600022212360        39.010096118712667        19.580040023068523     
 H    15.341295516541511        38.542396061042396        18.659580089911834     
 H    15.615253864148908        38.855769705474842        20.381295379822994     
 O    11.005617502135548        38.717867711739316        22.916440873381866     
 H    10.544478861598241        37.921033925467000        23.097872431773776     
 H    11.902410472943592        38.269781254440993        22.578920318580632     
 O    22.415299364837185        36.723083750628298        27.499934673504587     
 H    22.310801283289358        36.285356719021152        28.470404307244017     
 H    23.524922297266354        36.770201517052847        27.403784578993491     
 O    14.799555234503980        25.036521123388880        20.488667395304354     
 H    14.848978923106960        25.209962634109285        21.443106145554996     
 H    13.711619436558497        25.297304388079127        20.343116221166635     
 O    14.985918623579899        28.920616338756577        17.400909555296543     
 H    14.922085458714212        28.060289458336968        16.963558960980428     
 H    15.580889051620456        29.202702034106643        16.782185543185310     
 O    21.901953465943627        37.862811643221512        22.616585825764172     
 H    21.422536075571134        38.422133822544168        23.099288383520445     
 H    21.384122187948794        37.112403260559518        22.569608834975519     
 O    16.127836479666101        32.441369734993785        15.504466067225964     
 H    16.851385841659376        32.895471782778230        14.937211573797526     
 H    16.783269596470269        31.742879231890427        15.784221175728945     
 O    17.030149027688680        26.478184347264513        20.641686588650959     
 H    17.365911019090085        26.676052019643539        19.769775960751833     
 H    16.025652759464428        26.204611139615068        20.348823033366784     
 O    10.579543649999309        31.395872287293159        27.664790621782220     
 H    10.455675389322964        31.303319043068754        28.476698438269299     
 H    10.098404824967723        30.801211853963345        27.000768265391052     
 O    9.4239002570131944        33.260122178666364        16.877511644241959     
 H    9.2589593736506917        32.607571606302997        16.219423864294580     
 H    8.7656882214445577        33.614081413789428        17.347745131568928     
 O    17.538974063972613        35.328395732705474        16.917477220534554     
 H    17.402266397044126        35.443401760922875        17.781979293469931     
 H    16.791134520367102        36.084132290049205        16.803725836131413     
 O    17.306562137861480        29.097015933420774        28.842211325249401     
 H    17.571591409998423        29.792446663516657        29.458040051275489     
 H    18.066497771729495        29.099839447278988        28.029536882059659     
 O    14.047421625841663        40.460436017494175        25.103592406089223     
 H    14.489220520259328        40.489229262587287        25.925374283366477     
 H    14.611416554921803        40.911273002232726        24.579133048124540     
 O    27.445769270653493        33.751512316672745        18.088490969807687     
 H    28.146100815955482        33.010817742586383        18.394917328734621     
 H    27.664858445908433        34.636914905961014        18.659514699893077     
 O    12.191867399933617        31.645536326592108        16.506294726420176     
 H    11.314574250942526        31.621048864997864        16.163122505213213     
 H    12.049635978863343        31.188185413848224        17.424566599625948     
 O    21.929358918276549        34.333128282014421        19.074104562726856     
 H    22.523518734209414        34.383591601987312        19.759226399626513     
 H    21.114860529490944        33.989048100079273        19.615194611206512     
 O    19.052385060901884        27.162785640719072        18.689086632477963     
 H    19.219640895458777        28.075761434491771        18.809306048956582     
 H    19.634955119169760        26.612404223458665        19.255661556866546     
 O    20.066453733539586        39.391101592328852        24.408126922250034     
 H    19.165121142117819        39.503230903167257        24.594213721668588     
 H    20.447522322332045        39.142450651446310        25.185970103365019     
 O    16.625450114542708        39.722744043048266        22.369890488889805     
 H    16.724340849652826        38.872258927516768        22.637487950210094     
 H    17.313052907384002        40.070728125388392        21.748409825189345     
 O    10.552645804374423        37.338529672658879        18.154702350711826     
 H    11.286633167950711        36.690126427254484        18.339567388703909     
 H    11.102445055843937        37.824303437885185        17.677186343187238     
 O    18.021452411357291        30.959933090723055        30.788181548774194     
 H    18.285063739265020        30.839344496598596        31.679489891114446     
 H    17.292517361669201        31.575179130994954        30.802016960583622     
 O    18.900681434731229        38.196037588390269        18.791408100453562     
 H    18.983420227800568        37.509348004739714        19.508894717093000     
 H    18.418309289706279        38.924160374936946        19.320796095613915     
 O    12.851472313081270        27.217848884371776        25.749557298730629     
 H    12.020702509285210        27.515599689760631        25.291733361093318     
 H    12.759684406411521        26.268920847335753        25.514855923032346     
 O    20.304390260908221        32.749751320206556        16.077623261150368     
 H    20.901387582260472        32.037616032298359        15.898079915386631     
 H    19.423021772709774        32.449158213667786        16.222995748131016     
 O    8.4398138103759148        34.729144792567958        26.849710575315783     
 H    9.4242339050732156        34.966178607347508        26.821611537820068     
 H    8.5258377589650696        34.260420157758382        26.140031691561795     
 O    23.673533022073261        34.972973647420780        21.002036132369206     
 H    23.848372132274012        35.385224262866203        21.927831811833059     
 H    24.509332294682178        35.008579340643109        20.803232090488056     
 O    11.519248411689453        33.272962124338470        29.411122237486033     
 H    10.480752151306431        33.401720965603268        29.664599491365195     
 H    11.539422592235265        32.646607620154079        28.621107784388652     
 O    16.205973256558199        38.255564812159079        28.414941173549913     
 H    15.980638763863038        37.844261565876771        27.594333611098012     
 H    15.808082222766881        39.216500580744160        28.264112629057927     
 O    10.059447824171698        28.583985439127353        20.041901615304035     
 H    10.622648307273924        28.990806116054760        19.395293740653582     
 H    9.8195861942308902        29.397904711649577        20.485354343261857     
 O    21.765012365073968        28.109472175820194        22.887686884860301     
 H    21.688800922585983        27.210889357008618        22.745517205867159     
 H    20.875223899150445        28.275598690652053        22.937892731332113     
 O    9.8960420130342737        36.153161500833654        23.197829720465542     
 H    9.1946640951883030        35.971655919141668        24.116787103724526     
 H    9.7334913076471974        35.077879269177927        22.988886679874753     
 O    15.608199157188400        32.180277447617279        30.055213625579423     
 H    15.203017028413869        31.946411853485284        29.280791014028839     
 H    15.351683003064288        33.217368588709270        30.292790512149416     
 O    20.181516921677314        28.683695769701412        27.584096576925059     
 H    20.766656428744700        28.818116801627006        28.383412621588974     
 H    20.708574019523464        29.487316806097681        27.166872428839120     
 O    23.217974341690471        30.767364448795128        20.979577443967848     
 H    23.488597834264151        30.266283954980739        20.239778746182164     
 H    23.269126052928527        30.248433546339815        21.794557889610726     
 O    8.1098484263007933        34.039924168282809        24.342024345729435     
 H    7.6685992427771934        33.103660676862525        24.211553415369266     
 H    7.6363304751354191        34.342834929677537        23.571249996698381     
 O    9.9480849873906489        37.607768952398615        28.425887618088417     
 H    9.1826150816709227        37.171598920321308        29.029598868937118     
 H    9.4679266813411580        38.061795338039914        27.706572710897987     
 O    11.308906350625527        26.889237407009482        21.803166725338706     
 H    11.972695936147085        26.519301576423505        21.239263478278808     
 H    10.896100976579735        27.310264665491037        21.127075420488794     
 O    14.833276335632883        25.639074657726379        23.326234536235869     
 H    14.181704419122088        25.572260415911973        24.090682686025520     
 H    15.680027524488683        25.880111267806129        23.780416308641435     
 O    9.9857194635722042        27.556073978449639        24.179264456949049     
 H    9.0352068031504000        27.197979948944017        24.189417855503052     
 H    10.345537182205781        27.248947448446984        23.530485987626090     
 O    16.708661358646669        41.455707079893173        24.365750272395459     
 H    16.462498543046870        42.141183120909297        23.698850536406987     
 H    16.705588128308722        40.785774247414089        23.655319220601474     
 O    15.947559709886352        26.702888309041420        28.370765765978025     
 H    14.998561227663677        26.884570289209282        28.538836807530220     
 H    16.364407628151472        27.418021624613029        28.722093046280062     
 O    16.713209003233455        25.817846781809575        25.708752285856807     
 H    17.583208038895343        26.065524244799441        26.004250969239177     
 H    16.029780228730242        26.072738876373407        26.479208550124717     
 O    20.584329360417303        38.690546809395862        27.101804532362685     
 H    21.097826507713155        37.982670727908278        26.856302244348253     
 H    20.342396670119850        38.723737630469465        28.039799235263835     
 O    14.024695910508026        41.027480681926221        21.186801945997875     
 H    13.854797638599020        41.251728802472272        22.101005121760345     
 H    14.477067827900999        40.173021283008786        20.858811428767059     
 O    7.9829781610130892        36.442480582085231        18.506837993595482     
 H    8.8798392687475367        36.659199083266721        18.314226443628950     
 H    7.8823051696593778        37.114142694429425        19.183788593916763     
 O    12.132790963332427        25.510103679386567        19.407739460428729     
 H    11.286347013907370        25.035167311766958        19.180404690350201     
 H    12.424508707933485        25.671544602787474        18.508844327153096     
 O    21.005517335652691        35.616979962846592        15.999405904289231     
 H    20.260863530524620        35.551940411641915        15.441019513936014     
 H    20.672173178344416        35.360601525412079        16.885843232129584     
 O    23.191909015284889        33.395701256925157        16.730895222086190     
 H    22.689436441036538        33.640998149165341        17.523138924382238     
 H    22.329280062800038        33.108365507003164        16.248401052923935     
 O    14.098047564130557        34.653879185897431        30.926447774389231     
 H    13.665687107647210        35.089067920550107        31.557028220319197     
 H    13.993377323574990        34.856304067474177        29.996724338222823     
 O    10.661157030188297        41.611753238332554        20.684413598970352     
 H    10.431269429950285        40.748821840313020        21.282965799774967     
 H    10.892635474259240        41.206360922100082        19.936354381899548     
 O    17.901834864579488        41.201676799176759        26.871836466774425     
 H    17.515846167077395        40.205913112520648        26.737593475219448     
 H    17.651680407722594        41.605582431203523        26.077374982697595     
 O    13.919228863323163        30.913435391661451        14.669432959567191     
 H    13.272374716211047        30.893019652610764        15.238964761186649     
 H    14.696114046050733        31.458172599274842        14.994938581692185     
 O    10.429437690612371        27.534022283681956        16.543666227663319     
 H    11.043285716571065        28.160956983232197        17.002832797334452     
 H    9.5228677841464240        28.008819514148328        16.912053458285385     
 O    13.427750955957647        28.003092089076052        28.318496635383006     
 H    12.774993626900249        27.609860644352761        28.828415981103461     
 H    12.996190505016882        27.823534890492226        27.479092132268200     
 O    13.862219716888095        40.832565152127309        18.010385394219057     
 H    13.878220509505384        41.793231571123087        18.340250416911132     
 H    14.216469290362694        40.389411836857441        18.804904312747187     
 O    22.869206923131021        33.220414283471477        25.907379603408252     
 H    23.530496051966828        33.462984594952793        26.521284315848970     
 H    23.474820648834871        33.019468599533980        25.014269725354971     
 O    18.141244263059324        35.016740729685424        31.212569906421418     
 H    18.185561400365383        34.362506069450376        30.597684037665658     
 H    19.073099441497973        35.193346270768650        31.284214032037845     
 O    22.334441253125558        30.958349250067492        30.174348025443781     
 H    21.785089687197260        30.168196764007796        30.335203129651326     
 H    21.978598481720152        31.074458919683199        29.332181344200293     
 O    21.829733043026124        38.284513581666175        19.156828795967925     
 H    22.060848052925284        38.147711133140234        18.222068193588562     
 H    21.092537181368201        37.597287889751904        19.216344140162370     
 O    8.1388743956872709        33.661393196298235        20.206119759049578     
 H    8.0292859645942780        34.621973902837645        20.128148655710010     
 H    7.3122706898881162        33.324945649468944        20.693772879881635     
 O    13.997749161451159        26.121196666392485        17.385784665612391     
 H    13.558995972967052        25.564052243449225        16.809115836885827     
 H    14.827036849383237        25.596307934127271        17.650640838964616     
 O    19.244947022836893        26.483245821363422        26.502217989169203     
 H    19.456842621641531        26.146293725972544        27.425801158199985     
 H    19.663446670742317        27.506315817550515        26.507556110749324     
 O    8.4226904992945002        29.623502838424216        17.553391641747002     
 H    8.2979668828453317        30.215833910863697        16.768499463294983     
 H    7.5290953556309832        29.682355376749022        17.901486804058447     
 O    17.305894846302134        22.969415157910831        20.989079301214772     
 H    17.942631753382955        23.556744181659163        21.525586536277093     
 H    16.576869484764579        23.384642932844343        21.037660841612606     
 O    11.362699933527679        32.684490854181320        32.136103990858771     
 H    11.834829798273752        32.941678033193938        31.272061948645693     
 H    12.161440493399695        32.228349315912951        32.259238885105887     
 O    15.204895535009307        39.627546837214560        15.738076122340543     
 H    14.375014460510441        39.952602841359841        16.265482604444347     
 H    15.499437730122006        38.822428308008796        15.942225550018893     
 O    11.255326594490425        40.943879647174548        24.635972978851456     
 H    12.235345014644325        40.788174945570233        24.935474669709389     
 H    11.010601576558670        40.107321580749243        24.097111499786791     
 O    7.9483081099359358        31.251457111047287        23.517514398978932     
 H    8.3712430014758183        30.889774247701425        22.728677028908184     
 H    7.1687032631620289        30.701037274999130        23.782262640559331     
 O    24.247033319640426        32.299271448986474        23.704356174291465     
 H    24.290007041622083        32.294715039874951        22.778797320487371     
 H    24.048548771067878        31.218342891110815        23.848397955579060     
 O    17.131119855264917        29.973482458663433        15.757949287749193     
 H    18.068485055137675        29.696367502148718        15.498143713113869     
 H    16.517757270514274        29.917939342507083        14.958911471526319     
 O    18.223665030936754        40.632416906169887        20.188994093328645     
 H    19.138150565005269        40.610347637571905        20.642754715777134     
 H    17.840992606106180        41.441144711303942        20.181285290974252     
 O    6.2646935833471993        30.714244313549106        26.661352563175864     
 H    5.7888944538517064        30.323585052581002        25.972487550423615     
 H    6.6158408329931717        29.825939185673867        26.964252057389860     
 O    17.972836524362453        32.656077552776672        13.562596042168719     
 H    17.299442784041698        32.220397124952427        12.881361018807109     
 H    18.803579233790117        32.626408540502133        13.022889129924982     
 O    14.822814073824850        40.558191283056665        27.906553698037236     
 H    15.427400379979478        41.379287257230899        27.945241302404977     
 H    13.942630213622504        40.916294339695511        28.231214756380073     
 O    19.924666849843334        37.938442327050247        29.990461785890378     
 H    20.279957984459202        37.010622104531244        30.280056214485700     
 H    19.190923898434704        38.201602895726687        30.556415046264860     
 O    17.509695105513533        37.762940238871082        30.884705440481660     
 H    17.614279803376728        36.841953070547532        31.170997218410374     
 H    16.767618738348677        37.646613138303131        30.480182632603444     
 O    20.896037736308273        41.087125568987368        22.024792450190496     
 H    20.217650665808488        41.655456460089319        22.154668637345363     
 H    20.809853041550635        40.527112619371785        22.919454161858447     
 O    9.6356215969279138        30.771208394856657        30.293929119614738     