        22
 Time step:        2450
 C    16.518614560997104        32.448708938704108        24.014509237455108     
 C    17.255999944696903        31.982620998682268        25.150184268225750     
 C    18.556983897686134        31.431382226376808        25.017309034564043     
 C    19.259540168259921        31.798865051943690        23.869330521262192     
 C    18.673578213692057        32.463493402038694        22.740299914945187     
 C    17.300820807062994        32.825144504579903        22.826962718034231     
 H    16.656390995873959        31.533207484846695        25.889284414779713     
 H    18.904889681723198        30.977180380598067        25.889766426148238     
 H    20.254912442438247        31.206670175567577        23.906256997377451     
 H    19.372856816359850        32.872936343177678        22.033070546073219     
 H    16.768736564556146        33.102298019978470        21.985637694757198     
 O    15.130493449711228        32.704266064704370        24.119434411424198     
 H    14.811491699523735        32.761132086937856        23.209696304371125     
 O    15.485212919272129        33.203389211297626        19.694368907116537     
 H    14.803480780489323        33.254622982533988        20.540966286031679     
 H    15.814963070956061        32.156485239677515        19.620438541020377     
 O    14.230894283632345        35.675017053680754        23.823110305328836     
 H    13.652792087466127        34.861596606977642        23.942053435316257     
 H    13.785980649450009        36.163293002724437        24.501947737805871     
 O    14.012024211097582        33.225942494798915        21.819411152588810     
 H    13.103612272105224        34.341628813651518        21.846673287801018     
 H    13.192281196367233        32.677119885022563        21.556860886855425     
