           3
Units: angs.;  Time step:           1  ;  Sim. Time [au]:          10.00
O     0.00000000E+00    0.11797451E+00    0.00000000E+00
H     0.75684348E+00   -0.47179770E+00    0.00000000E+00
H    -0.75684348E+00   -0.47179770E+00    0.00000000E+00
           3
Units: angs.;  Time step:           1  ;  Sim. Time [au]:          10.00
O     0.00000000E+00    0.11796495E+00    0.00000000E+00
H     0.75678478E+00   -0.47172184E+00    0.00000000E+00
H    -0.75678478E+00   -0.47172184E+00    0.00000000E+00
           3
Units: angs.;  Time step:           1  ;  Sim. Time [au]:          10.00
O     0.00000000E+00    0.11796176E+00    0.00000000E+00
H     0.75676522E+00   -0.47169655E+00    0.00000000E+00
H    -0.75676522E+00   -0.47169655E+00    0.00000000E+00
           3
Units: angs.;  Time step:           1  ;  Sim. Time [au]:          10.00
O     0.00000000E+00    0.11796495E+00    0.00000000E+00
H     0.75678478E+00   -0.47172184E+00    0.00000000E+00
H    -0.75678478E+00   -0.47172184E+00    0.00000000E+00
