           3
Units: a.u.;  Time step: 1
O   0.0000000000E+00 -0.9563564009E-05  0.0000000000E+00
H  -0.5851553569E-04  0.7589655783E-04  0.0000000000E+00
H   0.5851553569E-04  0.7589655783E-04  0.0000000000E+00
O   0.0000000000E+00 -0.1314779241E-04  0.0000000000E+00
H  -0.8043976155E-04  0.1043410371E-03  0.0000000000E+00
H   0.8043976155E-04  0.1043410371E-03  0.0000000000E+00
O   0.0000000000E+00 -0.1434197286E-04  0.0000000000E+00
H  -0.8774274119E-04  0.1138180673E-03  0.0000000000E+00
H   0.8774274119E-04  0.1138180673E-03  0.0000000000E+00
O   0.0000000000E+00 -0.1314779241E-04  0.0000000000E+00
H  -0.8043976155E-04  0.1043410371E-03  0.0000000000E+00
H   0.8043976155E-04  0.1043410371E-03  0.0000000000E+00
