           3
 Time step:           1
O   0.2351056227E-03  0.1177122456E+00 -0.6844526983E-03
H   0.7684535792E+00 -0.4732349450E+00  0.1635168916E-02
H  -0.7721851807E+00 -0.4868519384E+00  0.9228488450E-02
           3
 Time step:           2
O   0.3893119525E-03  0.1159128252E+00 -0.1463186952E-02
H   0.7912596512E+00 -0.4837949596E+00  0.3806246478E-02
H  -0.7976472500E+00 -0.5102254579E+00  0.2135578183E-01
           3
 Time step:           2
O   0.3893119525E-03  0.1159128252E+00 -0.1463186952E-02
H   0.7912596512E+00 -0.4837949596E+00  0.3806246478E-02
H  -0.7976472500E+00 -0.5102254579E+00  0.2135578183E-01
           3
 Time step:           3
O   0.4157698506E-03  0.1122950785E+00 -0.2437231513E-02
H   0.8219565697E+00 -0.5023487240E+00  0.7198563859E-02
H  -0.8274191198E+00 -0.5349887395E+00  0.3930445723E-01
           3
 Time step:           3
O   0.4157698506E-03  0.1122950785E+00 -0.2437231513E-02
H   0.8219565697E+00 -0.5023487240E+00  0.7198563859E-02
H  -0.8274191198E+00 -0.5349887395E+00  0.3930445723E-01
