           3
Units: angs.;  Time step:           1  ;  Sim. Time [au]:          20.00
O     0.23510562E-03    0.11771225E+00   -0.68445270E-03
H     0.76845358E+00   -0.47323495E+00    0.16351689E-02
H    -0.77218518E+00   -0.48685194E+00    0.92284884E-02
           3
Units: angs.;  Time step:           2  ;  Sim. Time [au]:          40.00
O     0.38931195E-03    0.11591283E+00   -0.14631870E-02
H     0.79125965E+00   -0.48379496E+00    0.38062465E-02
H    -0.79764725E+00   -0.51022546E+00    0.21355782E-01
           3
Units: angs.;  Time step:           3  ;  Sim. Time [au]:          60.00
O     0.41576985E-03    0.11229508E+00   -0.24372315E-02
H     0.82195657E+00   -0.50234872E+00    0.71985639E-02
H    -0.82741912E+00   -0.53498874E+00    0.39304457E-01
