           3
 Time step:           1
O   0.2351054824E-03  0.1174881153E+00 -0.6844524960E-03
H   0.7672801971E+00 -0.4732798682E+00  0.1635170447E-02
H  -0.7710117983E+00 -0.4868968617E+00  0.9228484314E-02
           3
 Time step:           2
O   0.3891561774E-03  0.1150176178E+00 -0.1473311288E-02
H   0.7877975607E+00 -0.4841832064E+00  0.3883061650E-02
H  -0.7947483345E+00 -0.5118428736E+00  0.2177133211E-01
           3
 Time step:           3
O   0.4051936035E-03  0.1102705302E+00 -0.2480793009E-02
H   0.8188629960E+00 -0.5044713844E+00  0.7556813321E-02
H  -0.8261634660E+00 -0.5402629997E+00  0.4107914123E-01
