           3
Units: angs.;  Time step:           1  ;  Sim. Time [au]:          20.00
O     0.23510548E-03    0.11748812E+00   -0.68445250E-03
H     0.76728020E+00   -0.47327987E+00    0.16351704E-02
H    -0.77101180E+00   -0.48689686E+00    0.92284843E-02
           3
Units: angs.;  Time step:           22  ;  Sim. Time [au]:          40.00
O     0.38915618E-03    0.11501762E+00   -0.14733113E-02
H     0.78779756E+00   -0.48418321E+00    0.38830616E-02
H    -0.79474833E+00   -0.51184287E+00    0.21771332E-01
           3
Units: angs.;  Time step:           3  ;  Sim. Time [au]:          60.00
O     0.40519360E-03    0.11027053E+00   -0.24807930E-02
H     0.81886300E+00   -0.50447138E+00    0.75568133E-02
H    -0.82616347E+00   -0.54026300E+00    0.41079141E-01
