           3
Time step:                   1 Sim. Time [au]           7.00
O    -0.39784734E-03    0.11821789E+00    0.96882473E-03
H     0.76385750E+00   -0.47630314E+00   -0.85257922E-03
H    -0.75163553E+00   -0.47206222E+00   -0.17077023E-02
           3
Time step:                   1 Sim. Time [au]           7.00
O     0.43544690E-03    0.11785904E+00   -0.52081462E-03
H     0.75402661E+00   -0.47448419E+00    0.17844531E-02
H    -0.75832839E+00   -0.47171566E+00    0.89006224E-02
           3
Time step:                   1 Sim. Time [au]           7.00
O     0.11805434E-02    0.11933755E+00    0.82347459E-04
H     0.76062273E+00   -0.47346085E+00   -0.27907737E-02
H    -0.75941165E+00   -0.46989045E+00    0.36978812E-02
           3
Time step:                   1 Sim. Time [au]           7.00
O     0.45607264E-03    0.11777408E+00    0.12225220E-03
H     0.75329945E+00   -0.46800833E+00    0.73623080E-02
H    -0.75924554E+00   -0.47334692E+00    0.26786914E-02
           3
Time step:                   2 Sim. Time [au]          14.00
O    -0.29205571E-02    0.11790595E+00    0.22332228E-02
H     0.77758499E+00   -0.47680767E+00   -0.35189164E-02
H    -0.74473249E+00   -0.46579453E+00   -0.27857687E-02
           3
Time step:                   2 Sim. Time [au]          14.00
O     0.39800943E-03    0.11666737E+00   -0.23902084E-02
H     0.75406953E+00   -0.47731271E+00    0.28100908E-02
H    -0.75875333E+00   -0.46411260E+00    0.21150010E-01
           3
Time step:                   2 Sim. Time [au]          14.00
O     0.19152411E-02    0.12303129E+00    0.17532559E-03
H     0.77912906E+00   -0.47580585E+00   -0.18695238E-01
H    -0.75607833E+00   -0.46947348E+00    0.11147596E-01
           3
Time step:                   2 Sim. Time [au]          14.00
O     0.42049692E-03    0.11669710E+00    0.25400586E-02
H     0.75627149E+00   -0.46710673E+00    0.13293082E-01
H    -0.75915941E+00   -0.47507708E+00    0.38177325E-02
