           3
Time step:                   1 Sim. Time [au]           7.00
O    -0.64219180E-03    0.11817586E+00   -0.14764788E-04
H     0.76502193E+00   -0.47224707E+00   -0.23265067E-02
H    -0.75339331E+00   -0.47332049E+00    0.50878650E-03
           3
Time step:                   1 Sim. Time [au]           7.00
O    -0.46812601E-03    0.11843729E+00   -0.37768540E-03
H     0.75209900E+00   -0.47459930E+00    0.90840677E-02
H    -0.75606123E+00   -0.47574112E+00    0.25551071E-02
           3
Time step:                   1 Sim. Time [au]           7.00
O    -0.65743185E-03    0.11881933E+00    0.31825228E-03
H     0.76362528E+00   -0.47633894E+00   -0.19040165E-02
H    -0.76086918E+00   -0.46908653E+00    0.33760674E-02
           3
Time step:                   1 Sim. Time [au]           7.00
O     0.51998089E-03    0.11738218E+00    0.31368700E-03
H     0.75750437E+00   -0.47165517E+00    0.32139573E-02
H    -0.75819200E+00   -0.46990504E+00    0.21341847E-02
