           3
Time step:                   1 Sim. Time [au]           7.00
O    -0.64219505E-03    0.11817586E+00   -0.14765760E-04
H     0.76502194E+00   -0.47224707E+00   -0.23265078E-02
H    -0.75339331E+00   -0.47332048E+00    0.50878401E-03
           3
Time step:                   1 Sim. Time [au]           7.00
O    -0.46812762E-03    0.11843729E+00   -0.37768551E-03
H     0.75209900E+00   -0.47459930E+00    0.90840732E-02
H    -0.75606123E+00   -0.47574112E+00    0.25551047E-02
           3
Time step:                   1 Sim. Time [au]           7.00
O    -0.65743030E-03    0.11881933E+00    0.31825250E-03
H     0.76362528E+00   -0.47633894E+00   -0.19040246E-02
H    -0.76086918E+00   -0.46908653E+00    0.33760704E-02
           3
Time step:                   1 Sim. Time [au]           7.00
O     0.51997808E-03    0.11738218E+00    0.31368680E-03
H     0.75750437E+00   -0.47165517E+00    0.32139604E-02
H    -0.75819200E+00   -0.46990504E+00    0.21341861E-02
