           3
Time step:                   1 Sim. Time [au]          20.00
O    -0.34814842E-02    0.11687537E+00   -0.16487974E-02
H     0.79907715E+00   -0.45192907E+00   -0.75476945E-02
H    -0.74660746E+00   -0.48301559E+00   -0.18038408E-02
           3
Time step:                   1 Sim. Time [au]          20.00
O    -0.17761837E-02    0.11924964E+00    0.11512397E-03
H     0.73249343E+00   -0.47159862E+00    0.27634738E-01
H    -0.74687325E+00   -0.47010443E+00   -0.11634770E-01
           3
Time step:                   1 Sim. Time [au]          20.00
O    -0.31411640E-02    0.12507490E+00    0.34604848E-02
H     0.79549119E+00   -0.48484676E+00   -0.20906965E-01
H    -0.75936787E+00   -0.45852380E+00    0.11557697E-01
           3
Time step:                   1 Sim. Time [au]          20.00
O     0.93567811E-03    0.11139306E+00    0.16526130E-02
H     0.79213528E+00   -0.47319759E+00    0.25640619E-02
H    -0.77288893E+00   -0.46420032E+00   -0.10535014E-02
           3
Time step:                   2 Sim. Time [au]          40.00
O    -0.44454193E-02    0.11970410E+00   -0.10068620E-01
H     0.78939139E+00   -0.46241218E+00   -0.25104947E-01
H    -0.78391909E+00   -0.48752931E+00   -0.22073671E-01
           3
Time step:                   2 Sim. Time [au]          40.00
O     0.36785972E-02    0.11191458E+00    0.56060867E-03
H     0.70342537E+00   -0.47259991E+00    0.20391055E-01
H    -0.74021966E+00   -0.49489097E+00   -0.19471189E-02
           3
Time step:                   2 Sim. Time [au]          40.00
O    -0.27400235E-02    0.11723198E+00   -0.20911581E-02
H     0.81663618E+00   -0.47676674E+00   -0.32341554E-02
H    -0.79109731E+00   -0.45424547E+00    0.23832901E-01
           3
Time step:                   2 Sim. Time [au]          40.00
O    -0.41309103E-02    0.10757461E+00   -0.29896908E-02
H     0.79633855E+00   -0.48744957E+00    0.51753488E-01
H    -0.79258420E+00   -0.45342790E+00    0.31504237E-02
