           3
Time step:                   1 Sim. Time [au]           5.00
O    -0.43827142E-03    0.11773371E+00   -0.26273479E-03
H     0.76201984E+00   -0.47286022E+00   -0.16356058E-02
H    -0.75539608E+00   -0.47081628E+00   -0.10228761E-02
           3
Time step:                   1 Sim. Time [au]           5.00
O    -0.61534647E-04    0.11824665E+00   -0.42815149E-03
H     0.75346458E+00   -0.47228083E+00    0.46141772E-02
H    -0.75675523E+00   -0.47558753E+00    0.32263897E-02
           3
Time step:                   1 Sim. Time [au]           5.00
O    -0.69849979E-04    0.11833679E+00    0.21434856E-03
H     0.75990195E+00   -0.47361805E+00   -0.21002136E-02
H    -0.75959447E+00   -0.46959160E+00    0.26001450E-02
           3
Time step:                   1 Sim. Time [au]           5.00
O    -0.27612321E-04    0.11753803E+00   -0.10072979E-03
H     0.75520934E+00   -0.47099866E+00    0.39839227E-02
H    -0.75718644E+00   -0.47117554E+00    0.81330267E-03
           3
Time step:                   2 Sim. Time [au]          10.00
O    -0.11938681E-02    0.11729161E+00   -0.14393690E-02
H     0.77223338E+00   -0.47199808E+00   -0.51285172E-02
H    -0.75580700E+00   -0.47336019E+00   -0.66816788E-02
           3
Time step:                   2 Sim. Time [au]          10.00
O    -0.28593208E-03    0.11820738E+00   -0.49037085E-03
H     0.74469445E+00   -0.47324963E+00    0.72289513E-02
H    -0.75389961E+00   -0.47948402E+00    0.49106105E-02
           3
Time step:                   2 Sim. Time [au]          10.00
O    -0.36667474E-03    0.11897069E+00    0.25335907E-03
H     0.76272213E+00   -0.47647882E+00   -0.87238253E-02
H    -0.76413080E+00   -0.46798562E+00    0.37068052E-02
           3
Time step:                   2 Sim. Time [au]          10.00
O    -0.98166035E-03    0.11610011E+00   -0.30005570E-03
H     0.75909420E+00   -0.47565647E+00    0.11049919E-01
H    -0.76172814E+00   -0.47108028E+00    0.16894085E-02
