           3
Time step:                   1 Sim. Time [au]           7.00
O    -0.64219088E-03    0.11817586E+00   -0.14764922E-04
H     0.76502193E+00   -0.47224707E+00   -0.23265050E-02
H    -0.75339331E+00   -0.47332049E+00    0.50878710E-03
           3
Time step:                   1 Sim. Time [au]           7.00
O    -0.46812613E-03    0.11843729E+00   -0.37768583E-03
H     0.75209901E+00   -0.47459930E+00    0.90840667E-02
H    -0.75606123E+00   -0.47574112E+00    0.25551078E-02
           3
Time step:                   1 Sim. Time [au]           7.00
O    -0.65743252E-03    0.11881933E+00    0.31825181E-03
H     0.76362528E+00   -0.47633894E+00   -0.19040162E-02
H    -0.76086918E+00   -0.46908653E+00    0.33760690E-02
           3
Time step:                   1 Sim. Time [au]           7.00
O     0.51998144E-03    0.11738218E+00    0.31368695E-03
H     0.75750437E+00   -0.47165517E+00    0.32139590E-02
H    -0.75819200E+00   -0.46990504E+00    0.21341849E-02
