           3
Time step:                   1 Sim. Time [au]          10.00
O    -0.12905010E-02    0.11807021E+00   -0.26298789E-03
H     0.77188995E+00   -0.46914834E+00   -0.36095628E-02
H    -0.75049467E+00   -0.47589310E+00    0.84643778E-03
           3
Time step:                   1 Sim. Time [au]          10.00
O    -0.85753110E-03    0.11874530E+00   -0.42064917E-03
H     0.74853278E+00   -0.47536490E+00    0.14285660E-01
H    -0.75451724E+00   -0.47562876E+00    0.11419803E-02
           3
Time step:                   1 Sim. Time [au]          10.00
O    -0.12284835E-02    0.12001611E+00    0.82560234E-03
H     0.76962601E+00   -0.47931077E+00   -0.52705751E-02
H    -0.76139439E+00   -0.46733822E+00    0.54220134E-02
           3
Time step:                   1 Sim. Time [au]          10.00
O     0.75578676E-03    0.11646945E+00    0.84098202E-03
H     0.76319053E+00   -0.47218336E+00    0.31029964E-02
H    -0.76059398E+00   -0.46869646E+00    0.20660950E-02
           3
Time step:                   2 Sim. Time [au]          20.00
O    -0.33817113E-02    0.11939972E+00   -0.26575959E-02
H     0.78426076E+00   -0.46971028E+00   -0.97932608E-02
H    -0.76065785E+00   -0.48880127E+00   -0.89411108E-02
           3
Time step:                   2 Sim. Time [au]          20.00
O    -0.75736855E-03    0.11607309E+00   -0.28089270E-03
H     0.72384669E+00   -0.48304606E+00    0.16618530E-01
H    -0.74571858E+00   -0.48515090E+00   -0.29460258E-02
           3
Time step:                   2 Sim. Time [au]          20.00
O    -0.41669052E-02    0.12110933E+00   -0.47711087E-03
H     0.78535480E+00   -0.48486278E+00   -0.50426980E-02
H    -0.77538624E+00   -0.46561671E+00    0.10787780E-01
           3
Time step:                   2 Sim. Time [au]          20.00
O     0.65476565E-04    0.11202607E+00    0.51092089E-03
H     0.78098946E+00   -0.48658069E+00    0.20956946E-01
H    -0.78097932E+00   -0.46419924E+00    0.70161925E-02
