           3
Time step:                   1 Sim. Time [au]           7.00
O     0.71549512E-04    0.11877969E+00    0.49164311E-03
H     0.75186373E+00   -0.47897458E+00   -0.31703734E-02
H    -0.75543112E+00   -0.47210137E+00   -0.53629718E-02
           3
Time step:                   1 Sim. Time [au]           7.00
O    -0.17069901E-03    0.11710204E+00   -0.25302688E-03
H     0.75215917E+00   -0.46626319E+00    0.19262486E-02
H    -0.75646561E+00   -0.47131417E+00   -0.38790483E-02
           3
Time step:                   1 Sim. Time [au]           7.00
O     0.27211868E-03    0.11795733E+00   -0.10171888E-02
H     0.75110337E+00   -0.47152899E+00    0.39553014E-02
H    -0.76000490E+00   -0.46880678E+00    0.43693345E-02
           3
Time step:                   2 Sim. Time [au]          14.00
O     0.17959266E-02    0.11965021E+00    0.21905616E-02
H     0.73426042E+00   -0.47975950E+00   -0.42948013E-02
H    -0.75126250E+00   -0.46397828E+00   -0.11890062E-01
           3
Time step:                   2 Sim. Time [au]          14.00
O     0.22338422E-03    0.11588863E+00   -0.35089318E-03
H     0.73982664E+00   -0.46836755E+00    0.25421854E-02
H    -0.74872063E+00   -0.47257717E+00   -0.14484710E-01
           3
Time step:                   2 Sim. Time [au]          14.00
O     0.45165162E-03    0.11828935E+00   -0.17345559E-02
H     0.74601559E+00   -0.46540352E+00    0.41999470E-02
H    -0.76704078E+00   -0.46092101E+00   -0.48335976E-02
