           3
Time step:                   1 Sim. Time [au]          10.00
O    -0.17419355E-02    0.11779816E+00    0.11918056E-02
H     0.77159616E+00   -0.47439587E+00   -0.20678562E-02
H    -0.75073353E+00   -0.46737814E+00   -0.65807887E-03
           3
Time step:                   1 Sim. Time [au]          10.00
O     0.21246376E-03    0.11751857E+00   -0.18267816E-02
H     0.75444461E+00   -0.47481783E+00    0.46596732E-02
H    -0.75762403E+00   -0.47066125E+00    0.12870418E-01
           3
Time step:                   1 Sim. Time [au]          10.00
O     0.87662833E-03    0.12037103E+00   -0.80215443E-04
H     0.77008073E+00   -0.47481270E+00   -0.10789448E-01
H    -0.75885775E+00   -0.47043153E+00    0.77160052E-02
           3
Time step:                   1 Sim. Time [au]          10.00
O     0.19536847E-03    0.11723509E+00    0.14251370E-02
H     0.75519768E+00   -0.46842975E+00    0.88653931E-02
H    -0.75689363E+00   -0.47422262E+00    0.20643866E-02
           3
Time step:                   2 Sim. Time [au]          20.00
O    -0.54239668E-02    0.11419901E+00   -0.16756235E-03
H     0.80049414E+00   -0.46249005E+00   -0.77005421E-02
H    -0.73987086E+00   -0.46086301E+00    0.36541210E-02
           3
Time step:                   2 Sim. Time [au]          20.00
O     0.17334654E-02    0.11949968E+00   -0.70039272E-02
H     0.74973510E+00   -0.46764175E+00    0.24395744E-01
H    -0.75099286E+00   -0.48034060E+00    0.16774878E-01
           3
Time step:                   2 Sim. Time [au]          20.00
O    -0.79312158E-03    0.12139620E+00    0.16616312E-02
H     0.79457146E+00   -0.47712876E+00   -0.35677248E-01
H    -0.76760214E+00   -0.46851044E+00    0.24366167E-01
           3
Time step:                   2 Sim. Time [au]          20.00
O    -0.25171079E-02    0.11365675E+00    0.49147015E-02
H     0.76758335E+00   -0.46910512E+00    0.16722967E-01
H    -0.74430633E+00   -0.49144159E+00   -0.12544382E-01
