           3
Time step:                   1 Sim. Time [au]           7.00
O     0.27049942E-03    0.11982448E+00   -0.60542631E-03
H     0.75734238E+00   -0.47716836E+00    0.77521039E-02
H    -0.76200394E+00   -0.47550444E+00   -0.51561312E-03
           3
Time step:                   1 Sim. Time [au]           7.00
O     0.14707567E-02    0.11688261E+00    0.46467511E-04
H     0.75452349E+00   -0.47367921E+00    0.13504936E-02
H    -0.75938499E+00   -0.46569376E+00    0.42185719E-02
           3
Time step:                   2 Sim. Time [au]          14.00
O     0.15935630E-02    0.12340602E+00   -0.20923565E-02
H     0.75110740E+00   -0.49305338E+00    0.20585717E-01
H    -0.76907309E+00   -0.47890535E+00    0.85528412E-02
           3
Time step:                   2 Sim. Time [au]          14.00
O     0.42509444E-02    0.11471035E+00   -0.71269333E-03
H     0.76079014E+00   -0.48178985E+00    0.19992688E-02
H    -0.76323938E+00   -0.45608490E+00    0.13193350E-01
