           3
Time step:                   1 Sim. Time [au]          20.00
O    -0.34814789E-02    0.11687537E+00   -0.16488013E-02
H     0.79907715E+00   -0.45192909E+00   -0.75476904E-02
H    -0.74660745E+00   -0.48301560E+00   -0.18038517E-02
           3
Time step:                   1 Sim. Time [au]          20.00
O    -0.17761823E-02    0.11924964E+00    0.11512047E-03
H     0.73249343E+00   -0.47159862E+00    0.27634718E-01
H    -0.74687325E+00   -0.47010445E+00   -0.11634748E-01
           3
Time step:                   1 Sim. Time [au]          20.00
O    -0.31411645E-02    0.12507489E+00    0.34604841E-02
H     0.79549117E+00   -0.48484676E+00   -0.20906980E-01
H    -0.75936785E+00   -0.45852380E+00    0.11557703E-01
           3
Time step:                   1 Sim. Time [au]          20.00
O     0.93567745E-03    0.11139306E+00    0.16526120E-02
H     0.79213527E+00   -0.47319759E+00    0.25640864E-02
H    -0.77288893E+00   -0.46420032E+00   -0.10535096E-02
           3
Time step:                   2 Sim. Time [au]          40.00
O    -0.44454161E-02    0.11970410E+00   -0.10068622E-01
H     0.78939141E+00   -0.46241218E+00   -0.25104954E-01
H    -0.78391907E+00   -0.48752930E+00   -0.22073695E-01
           3
Time step:                   2 Sim. Time [au]          40.00
O     0.36785920E-02    0.11191459E+00    0.56060719E-03
H     0.70342537E+00   -0.47259990E+00    0.20391039E-01
H    -0.74021965E+00   -0.49489096E+00   -0.19471355E-02
           3
Time step:                   2 Sim. Time [au]          40.00
O    -0.27400147E-02    0.11723199E+00   -0.20911592E-02
H     0.81663617E+00   -0.47676673E+00   -0.32341912E-02
H    -0.79109731E+00   -0.45424547E+00    0.23832879E-01
           3
Time step:                   2 Sim. Time [au]          40.00
O    -0.41309123E-02    0.10757463E+00   -0.29896900E-02
H     0.79633856E+00   -0.48744957E+00    0.51753484E-01
H    -0.79258419E+00   -0.45342791E+00    0.31504294E-02
