           3
 Time step:           1
O  -0.2463834806E-03  0.1497635739E-03  0.5392798309E-05
H   0.3403719274E-02  0.6831687398E-03 -0.7733294835E-03
H   0.8443794160E-03 -0.1725597106E-02 -0.6271726449E-03
O  -0.4373512288E-03  0.2187825961E-04  0.1271067897E-04
H  -0.2629484924E-02 -0.1591383814E-02  0.3019561703E-02
H   0.7153521356E-03 -0.4398683599E-03 -0.9315545730E-03
O  -0.5089471784E-03  0.4787694691E-03  0.1740196359E-03
H   0.2711074413E-02 -0.2046302680E-02 -0.1096556904E-02
H  -0.8665637802E-03  0.1011781310E-02  0.5075087237E-03
O   0.3522954533E-03 -0.5366387311E-03  0.2225411392E-03
H   0.2856420841E-02 -0.9675750121E-03  0.1228800920E-02
H  -0.1845529276E-02  0.9529193484E-03  0.6357338924E-03
