           3
 Time step:           1
O   0.2270564849E-03  0.9770320276E-03 -0.2329223246E-03
H  -0.1914520518E-02 -0.3004532745E-02  0.3134991975E-02
H  -0.1807929049E-02 -0.6763021432E-03  0.7450884317E-03
O   0.8362231938E-03 -0.5342823927E-03 -0.8422950748E-04
H   0.4255213215E-03 -0.1563493888E-02  0.4545929884E-04
H  -0.3489219881E-03  0.1798643458E-02  0.1714991653E-02
           3
 Time step:           2
O   0.3894966053E-03  0.6909850783E-03 -0.4215712287E-03
H  -0.1623102281E-03 -0.4252926243E-02  0.2852985638E-02
H  -0.2131134376E-02 -0.1883003006E-02  0.3537170737E-02
O   0.4294952398E-03 -0.5543423497E-03 -0.6065529688E-03
H   0.2410551726E-02 -0.2159207174E-02  0.7519004206E-03
H   0.1436219892E-04  0.4132776764E-02  0.3076693760E-02
