           3
 Time step:           1
O  -0.7390418575E-04  0.2640090270E-04 -0.4729928304E-03
H   0.4898467000E-02  0.2008198509E-02 -0.2579138394E-04
H  -0.3872379586E-02 -0.1774257258E-02 -0.2820320792E-02
O  -0.5983745019E-03 -0.7067440253E-03  0.3199386340E-03
H  -0.4921207845E-02 -0.9416028673E-03  0.1056257118E-02
H   0.3117921659E-03  0.1083090875E-02 -0.4281597905E-02
O  -0.5690331911E-03  0.3220383568E-03  0.5978694719E-03
H   0.4616750430E-02 -0.7700634722E-03 -0.1125847304E-02
H  -0.2367342538E-05  0.2462307798E-02  0.2024753082E-03
O   0.2942003141E-03 -0.1362540964E-02 -0.3889367165E-03
H   0.6118729708E-02 -0.1620156923E-02  0.2485163497E-02
H  -0.4117449259E-02  0.1308733787E-02  0.7534552345E-03
           3
 Time step:           2
O   0.4433059916E-03  0.5160589016E-03 -0.5576627293E-03
H  -0.5691345351E-02 -0.1117974173E-02 -0.3617000240E-02
H   0.3109403464E-03  0.4166198422E-02 -0.7452904840E-03
O   0.8957468511E-03  0.4372310866E-03  0.7401454182E-03
H   0.2354452003E-02  0.2641016189E-04 -0.7427563832E-03
H   0.1747758332E-02 -0.3414536424E-02  0.2088665869E-02
O   0.8467522932E-03 -0.1143413912E-02 -0.8254396653E-03
H   0.1218316130E-02 -0.1690733851E-02  0.2268385487E-02
H  -0.3842935391E-02 -0.1644651086E-02  0.6434005285E-03
O  -0.8812063692E-03  0.3869319263E-03  0.8178315802E-04
H  -0.7719430563E-03  0.1721375484E-02  0.1511100644E-02
H   0.3332365958E-02  0.3447454740E-02 -0.9975681264E-03
