           3
 Time step:           1
O  -0.2463853986E-03  0.1497634700E-03  0.5392078055E-05
H   0.3403723008E-02  0.6831716319E-03 -0.7733331566E-03
H   0.8443802649E-03 -0.1725592141E-02 -0.6271742629E-03
O  -0.4373523736E-03  0.2187672295E-04  0.1271095634E-04
H  -0.2629487212E-02 -0.1591381824E-02  0.3019564648E-02
H   0.7153506899E-03 -0.4398674130E-03 -0.9315549505E-03
O  -0.5089457290E-03  0.4787712910E-03  0.1740195882E-03
H   0.2711073751E-02 -0.2046302827E-02 -0.1096563452E-02
H  -0.8665660042E-03  0.1011781308E-02  0.5075092977E-03
O   0.3522935843E-03 -0.5366403487E-03  0.2225410009E-03
H   0.2856421607E-02 -0.9675792546E-03  0.1228801262E-02
H  -0.1845527968E-02  0.9529200301E-03  0.6357335689E-03
