           3
 Time step:           1
O  -0.2774267590E-03 -0.1733146325E-03 -0.2223023064E-03
H   0.3182847746E-02  0.3017214470E-03 -0.9574504787E-03
H   0.7704556216E-03 -0.4499566211E-04 -0.1180520543E-02
O  -0.2264170871E-03  0.9600475647E-05 -0.1484423442E-03
H  -0.2492105895E-02 -0.2518659552E-03  0.1828766880E-02
H   0.4356215787E-03 -0.1228904162E-02  0.5211923947E-03
O  -0.8507269750E-04  0.3205316888E-03  0.2245743638E-03
H   0.1335380424E-02 -0.1030635217E-02 -0.2247228236E-02
H  -0.7705421984E-03  0.8920406747E-03  0.7836420821E-03
O  -0.9847488791E-04 -0.4373752250E-03  0.8188295150E-05
H   0.9409240004E-03 -0.4844140114E-03  0.1970566211E-02
H  -0.9094715991E-03  0.3565656822E-03 -0.2013515596E-04
           3
 Time step:           2
O  -0.5615089871E-04 -0.1328050861E-03 -0.5650516423E-03
H   0.3344718029E-02  0.4226780561E-03 -0.1440018768E-02
H  -0.9101144242E-03 -0.1465644870E-02 -0.2802832662E-02
O   0.1663541834E-03  0.4899251763E-04  0.2828660847E-03
H  -0.3372579602E-02 -0.3393573978E-03  0.1976201509E-03
H   0.1849896161E-02 -0.2020215554E-02  0.9266971457E-03
O  -0.1267534361E-04  0.5923880799E-04 -0.2700629559E-03
H   0.9342832376E-03 -0.1603533205E-02 -0.2297812517E-02
H  -0.2701562398E-02 -0.1095008670E-03  0.2369060675E-03
O  -0.5991608490E-03 -0.5253076596E-03 -0.1619354791E-03
H   0.1641117676E-02 -0.2162952811E-02  0.2674196810E-02
H  -0.1969435014E-02  0.1310018914E-03  0.6703177356E-03
