           3
 Time step:           1
O  -0.6572340171E-03 -0.3084517260E-03  0.3738200087E-03
H   0.5803590871E-02  0.1777717607E-02 -0.3693129027E-03
H   0.1359985478E-02  0.1677767776E-02  0.1107092697E-02
O   0.1101792865E-04 -0.4187748343E-04 -0.9270799623E-03
H  -0.1767223037E-03 -0.5275766619E-03  0.2066701290E-02
H   0.7882011136E-03 -0.3520443099E-03  0.2439912094E-02
O  -0.6656683773E-08  0.4356756860E-03 -0.1200437238E-03
H   0.4445512348E-02 -0.1245179057E-02 -0.4914902099E-02
H  -0.5929616553E-03 -0.4780026562E-03  0.2909231993E-02
O  -0.1973553428E-03 -0.2375538688E-03  0.7853489836E-03
H   0.1269759880E-02  0.6486933503E-03  0.1304459144E-02
H   0.1046320297E-02 -0.1888201984E-02 -0.9629919623E-03
           3
 Time step:           2
O  -0.4951162768E-03 -0.4922974166E-03 -0.8419229527E-03
H   0.3858890523E-02  0.2439463546E-02 -0.1063338397E-02
H   0.2404576504E-02 -0.1036360659E-03  0.1404909588E-03
O   0.5582836499E-03  0.8059035512E-03 -0.6028875722E-03
H  -0.1235607730E-02  0.3554491972E-02  0.4206691102E-02
H   0.1438772759E-02 -0.6527717736E-03 -0.8174270848E-03
O  -0.1977174676E-03 -0.1192654606E-03  0.4105424632E-03
H   0.3704104701E-02 -0.7793280068E-03 -0.1696139467E-02
H  -0.2594341098E-02  0.4985096404E-04  0.2156638122E-02
O  -0.1567768031E-03 -0.1124174150E-02  0.7100568738E-03
H   0.2530981044E-02 -0.1284384656E-02 -0.2353425534E-03
H   0.2625464361E-02 -0.3902260762E-02 -0.3516650550E-02
