           3
 Time step:           1
O  -0.2316983199E-03  0.9770263670E-04  0.2223442200E-03
H   0.2742355513E-02 -0.1693654214E-02 -0.3602645823E-03
H   0.2597322349E-02 -0.2050187177E-03 -0.9781261276E-03
O   0.1443655274E-03 -0.1901329211E-03 -0.2358733446E-03
H  -0.4725486446E-03 -0.8636541798E-03 -0.2795208438E-03
H  -0.1083535144E-02  0.1638715745E-02  0.4165635235E-02
O   0.3658567969E-03  0.8341421590E-03  0.2149681065E-03
H   0.2776810442E-02 -0.8302467316E-03 -0.2309685840E-02
H   0.1880297376E-03  0.2412682735E-03  0.1057377273E-02
O   0.2300504291E-03 -0.1795364398E-03  0.2203108341E-03
H  -0.1491370374E-03  0.5572329009E-03  0.2393360013E-02
H  -0.1330930825E-02 -0.1229976693E-02  0.5500051525E-03
           3
 Time step:           2
O  -0.7579003834E-03 -0.2983060235E-03  0.4311551485E-03
H   0.5377886266E-02  0.2357224643E-02 -0.5082635992E-03
H   0.1149809498E-02  0.2421805598E-02  0.7809369066E-03
O  -0.1893221836E-03 -0.3560907626E-03 -0.9176096296E-03
H   0.2155366928E-03 -0.3425248212E-04  0.2105667822E-02
H   0.7752622679E-03  0.9740640150E-03  0.1972838570E-02
O   0.1069893608E-03  0.6237251842E-03 -0.1187988213E-03
H   0.5218867727E-02 -0.9526597197E-03 -0.5580486317E-02
H   0.3897257036E-03 -0.9601820104E-03  0.3056633890E-02
O  -0.3240529782E-03 -0.3832636005E-03  0.1092109463E-02
H   0.1801730338E-02  0.2555689692E-03  0.1876206911E-03
H   0.1513015306E-02 -0.1468873401E-02 -0.6160847640E-03
