           3
 Time step:           1
O  -0.2910139018E-03  0.1004455679E-03 -0.1097175514E-03
H   0.4474225735E-02  0.1612871170E-02 -0.6996986213E-03
H   0.2267668189E-03 -0.2279010769E-02 -0.1137402349E-02
O  -0.5380462655E-03 -0.8299892913E-04  0.1077913453E-03
H  -0.3505610911E-02 -0.1523234372E-02  0.2916991486E-02
H   0.9510351692E-03  0.2300792730E-03 -0.2252564691E-02
O  -0.6203655886E-03  0.6563542669E-03  0.3142843503E-03
H   0.3746556518E-02 -0.2099460650E-02 -0.1662486342E-02
H  -0.4593385963E-03  0.1451793417E-02  0.4623006438E-03
O   0.3820812871E-03 -0.8603810350E-03  0.2010440404E-03
H   0.4832412455E-02 -0.1342854359E-02  0.1235670619E-02
H  -0.2890408180E-02  0.1164493249E-02  0.4662471592E-03
           3
 Time step:           2
O  -0.9620813988E-04  0.4347855276E-03 -0.6660587063E-03
H  -0.1555491290E-02 -0.1310313435E-02 -0.2260781443E-02
H  -0.2182627821E-02 -0.6139924492E-03 -0.1939967053E-02
O   0.6503381701E-03 -0.2331341062E-03  0.2596660780E-03
H  -0.3266498526E-02 -0.1327913292E-02 -0.1639456380E-02
H   0.2260588415E-02 -0.3780431201E-02  0.9435959447E-03
O  -0.1643040332E-04 -0.3286645126E-03 -0.6435155603E-03
H   0.2137001767E-02 -0.1619855141E-02  0.1597831836E-02
H  -0.4238906458E-02 -0.1503403319E-02  0.1101190700E-02
O  -0.6286407622E-03 -0.4503801137E-03 -0.1955788787E-03
H   0.1565009730E-02 -0.2462553441E-02  0.3131473332E-02
H  -0.2198913891E-02  0.1769080387E-02  0.5759161169E-03
