           3
 Time step:           1
O  -0.2463839251E-03  0.1497635489E-03  0.5392828812E-05
H   0.3403719929E-02  0.6831695722E-03 -0.7733305094E-03
H   0.8443790692E-03 -0.1725595218E-02 -0.6271730680E-03
O  -0.4373511439E-03  0.2187807768E-04  0.1271087542E-04
H  -0.2629485687E-02 -0.1591382460E-02  0.3019562343E-02
H   0.7153522802E-03 -0.4398677137E-03 -0.9315547132E-03
O  -0.5089468288E-03  0.4787697458E-03  0.1740199051E-03
H   0.2711074527E-02 -0.2046302500E-02 -0.1096557439E-02
H  -0.8665651910E-03  0.1011781087E-02  0.5075078255E-03
O   0.3522951815E-03 -0.5366390616E-03  0.2225411446E-03
H   0.2856420973E-02 -0.9675758984E-03  0.1228799899E-02
H  -0.1845529190E-02  0.9529190047E-03  0.6357333292E-03
