           3
 Time step:           1
O  -0.7390382646E-04  0.2640096219E-04 -0.4729929258E-03
H   0.4898465688E-02  0.2008200461E-02 -0.2579182346E-04
H  -0.3872381204E-02 -0.1774257988E-02 -0.2820319846E-02
O  -0.5983742569E-03 -0.7067443126E-03  0.3199389636E-03
H  -0.4921208026E-02 -0.9416038367E-03  0.1056260036E-02
H   0.3117920356E-03  0.1083090198E-02 -0.4281595849E-02
O  -0.5690338422E-03  0.3220384200E-03  0.5978690791E-03
H   0.4616751980E-02 -0.7700643853E-03 -0.1125844892E-02
H  -0.2369216132E-05  0.2462309134E-02  0.2024769513E-03
O   0.2942010426E-03 -0.1362541611E-02 -0.3889368378E-03
H   0.6118729211E-02 -0.1620157629E-02  0.2485162739E-02
H  -0.4117449815E-02  0.1308734632E-02  0.7534548024E-03
           3
 Time step:           2
O   0.4433058251E-03  0.5160580923E-03 -0.5576626839E-03
H  -0.5691344544E-02 -0.1117975743E-02 -0.3617001930E-02
H   0.3109415523E-03  0.4166198335E-02 -0.7452923278E-03
O   0.8957479764E-03  0.4372321155E-03  0.7401452498E-03
H   0.2354454134E-02  0.2640905439E-04 -0.7427622816E-03
H   0.1747757621E-02 -0.3414538858E-02  0.2088665831E-02
O   0.8467517875E-03 -0.1143415287E-02 -0.8254388829E-03
H   0.1218314125E-02 -0.1690733198E-02  0.2268384736E-02
H  -0.3842931182E-02 -0.1644651192E-02  0.6434009925E-03
O  -0.8812068397E-03  0.3869318855E-03  0.8178304480E-04
H  -0.7719438954E-03  0.1721377131E-02  0.1511102779E-02
H   0.3332364290E-02  0.3447455025E-02 -0.9975713642E-03
