           3
 Time step:           1
O   0.1996551158E-03  0.3533018264E-03  0.2293696867E-03
H  -0.2159695975E-02 -0.1113969395E-02 -0.7408888251E-03
H   0.1268686956E-02  0.7642304632E-03 -0.1878021677E-02
O  -0.2658654234E-04 -0.4060668843E-03 -0.2349487636E-03
H  -0.2864036421E-02  0.1212287707E-02  0.4411809282E-03
H   0.1439750056E-02 -0.6307162433E-04 -0.2463846378E-02
O  -0.8209803309E-04 -0.4725028369E-04 -0.4400863975E-03
H  -0.1469055301E-02  0.1395286493E-02  0.3027577156E-03
H  -0.1477231874E-02  0.2015462066E-02  0.2951675802E-04
           3
 Time step:           2
O   0.8295884209E-03 -0.9574650512E-04  0.6696136851E-03
H  -0.5787443196E-02 -0.4973979100E-03  0.4051384081E-03
H   0.1069969056E-02  0.3304954440E-02 -0.1325819577E-02
O   0.4303980815E-03 -0.4681079235E-04  0.6775218816E-04
H  -0.2755284507E-02 -0.2516357071E-02  0.1655681329E-03
H   0.1490781622E-02 -0.6631127423E-03 -0.2819288360E-02
O   0.3335367008E-03  0.1196255370E-03  0.4416009947E-04
H  -0.8738341900E-03  0.1911031279E-02 -0.2392874071E-03
H  -0.1346025090E-02  0.2947849800E-02 -0.3722004485E-02
