           2
Time step:                2700 Sim. Time [au]        6750.00
I    -0.71520124E+00    0.00000000E+00    0.00000000E+00
Na    0.65762491E+01    0.00000000E+00    0.00000000E+00
