           3
 Step:           5
 O  -0.19496626277854781        5.7795569694522847E-002   0.0000000000000000     
 H   0.75998214460218194      -0.45302543447160276        0.0000000000000000     
 H  -0.79944888182363427      -0.48734413522292019        0.0000000000000000     
