           3
 Step:         167
 O  -0.10294736195713726        7.6725116283981321E-002   0.0000000000000000     
 H   0.69166951858258485      -0.42900171033422480        0.0000000000000000     
 H  -0.82315515662544769      -0.53029740594975661        0.0000000000000000     
