           3
 Step:         201
 O  -0.10239739794750195        7.7813947297192015E-002   0.0000000000000000     
 H   0.76126371018728356      -0.42625895446940182        0.0000000000000000     
 H  -0.89329931223978154      -0.53412899282779003        0.0000000000000000     
