           3
Time step:                   1 Sim. Time [au]          20.00
O    -0.15000163E+01    0.00000000E+00    0.00000000E+00
O     0.15000163E+01    0.00000000E+00    0.00000000E+00
H     0.00000000E+00    0.00000000E+00    0.00000000E+00
           3
Time step:                   2 Sim. Time [au]          40.00
O    -0.15000650E+01    0.00000000E+00    0.00000000E+00
O     0.15000650E+01    0.00000000E+00    0.00000000E+00
H     0.00000000E+00    0.00000000E+00    0.00000000E+00
