           3
 Time step:           1
O  -0.3071284454E-05  0.0000000000E+00  0.0000000000E+00
O   0.3071284454E-05  0.0000000000E+00  0.0000000000E+00
H   0.0000000000E+00  0.0000000000E+00  0.0000000000E+00
           3
 Time step:           2
O  -0.6132320006E-05  0.0000000000E+00  0.0000000000E+00
O   0.6132320006E-05  0.0000000000E+00  0.0000000000E+00
H   0.0000000000E+00  0.0000000000E+00  0.0000000000E+00
