           3
 Time step:           1
O  -0.1278414297E-02  0.1175834771E+00  0.5716908296E-03
H   0.7764544825E+00 -0.4790601775E+00 -0.2482035828E-03
H  -0.7587425391E+00 -0.4589734005E+00 -0.8641927212E-02
           3
 Time step:           1
O  -0.9938444416E-04  0.1169935892E+00 -0.8775452726E-03
H   0.7562947887E+00 -0.4670845334E+00  0.1290523464E-01
H  -0.7572570327E+00 -0.4616211844E+00  0.1183633443E-02
           3
 Time step:           1
O   0.4017950648E-03  0.1183522814E+00 -0.1379294373E-02
H   0.7585412973E+00 -0.4668930075E+00  0.1270006277E-01
H  -0.7674436862E+00 -0.4833952459E+00  0.9334886921E-02
           3
 Time step:           1
O   0.4990319480E-03  0.1172286260E+00  0.1131609105E-03
H   0.7540867243E+00 -0.4491586732E+00 -0.1331636604E-02
H  -0.7645067515E+00 -0.4833298290E+00 -0.3032066596E-03
           3
 Time step:           1
O   0.4365339190E-03  0.1177669741E+00 -0.6002859712E-03
H   0.7505275877E+00 -0.4754142373E+00  0.1036946587E-02
H  -0.7599300924E+00 -0.4655303186E+00  0.8643736973E-02
           3
 Time step:           2
O  -0.2550184133E-02  0.1173936466E+00  0.1222751018E-02
H   0.7897415736E+00 -0.4869831118E+00 -0.5115428675E-03
H  -0.7642642239E+00 -0.4509230906E+00 -0.1729970521E-01
           3
 Time step:           2
O  -0.2144402373E-03  0.1163044398E+00 -0.1674666835E-02
H   0.7514125667E+00 -0.4641362743E+00  0.2573083169E-01
H  -0.7627103561E+00 -0.4567433712E+00  0.2260449359E-02
           3
 Time step:           2
O   0.7628386482E-03  0.1190581491E+00 -0.2676821714E-02
H   0.7568841114E+00 -0.4644308526E+00  0.2528379024E-01
H  -0.7835881690E+00 -0.5002799430E+00  0.1847328311E-01
           3
 Time step:           2
O   0.9503962440E-03  0.1168164717E+00  0.3054035219E-03
H   0.7482258942E+00 -0.4293188197E+00 -0.2668249378E-02
H  -0.7777164330E+00 -0.5000775090E+00 -0.7614543696E-03
           3
 Time step:           2
O   0.8500864743E-03  0.1178505197E+00 -0.1120991177E-02
H   0.7402986778E+00 -0.4805667214E+00  0.2063489199E-02
H  -0.7680082923E+00 -0.4645777119E+00  0.1708051067E-01
           3
 Time step:           3
O  -0.3962910653E-02  0.1173866168E+00  0.2053461263E-02
H   0.7997056999E+00 -0.4954265655E+00 -0.8030516704E-03
H  -0.7731632677E+00 -0.4463778746E+00 -0.2570123822E-01
           3
 Time step:           3
O  -0.5334457381E-03  0.1158807949E+00 -0.2289922967E-02
H   0.7455984163E+00 -0.4631901705E+00  0.3840605431E-01
H  -0.7725560904E+00 -0.4555208081E+00  0.3408711202E-02
           3
 Time step:           3
O   0.8608404256E-03  0.1200516947E+00 -0.3789252985E-02
H   0.7554467384E+00 -0.4649228352E+00  0.3764394534E-01
H  -0.8042273173E+00 -0.5203455396E+00  0.2750044606E-01
           3
 Time step:           3
O   0.1125077340E-02  0.1167032254E+00  0.6772661586E-03
H   0.7430331702E+00 -0.4130897100E+00 -0.4011378767E-02
H  -0.7954282011E+00 -0.5198661285E+00 -0.1244546820E-02
           3
 Time step:           3
O   0.1044961697E-02  0.1181978799E+00 -0.1461196275E-02
H   0.7298380698E+00 -0.4873193173E+00  0.3071899454E-02
H  -0.7803892160E+00 -0.4673122367E+00  0.2539363897E-01
           3
 Time step:           4
O  -0.5745638356E-02  0.1175375885E+00  0.3269425800E-02
H   0.8099873883E+00 -0.5033928285E+00 -0.1159506349E-02
H  -0.7842754559E+00 -0.4433256193E+00 -0.3358694557E-01
           3
 Time step:           4
O  -0.1333642088E-02  0.1156773417E+00 -0.2516020853E-02
H   0.7427588326E+00 -0.4634873226E+00  0.5084084378E-01
H  -0.7850456548E+00 -0.4554310678E+00  0.4792230119E-02
           3
 Time step:           4
O   0.3820011311E-03  0.1212663776E+00 -0.4506763710E-02
H   0.7582213741E+00 -0.4677631260E+00  0.4965568427E-01
H  -0.8271257242E+00 -0.5405551900E+00  0.3648591247E-01
           3
 Time step:           4
O   0.7030165577E-03  0.1168277548E+00  0.1435561865E-02
H   0.7426331247E+00 -0.4000816623E+00 -0.5388029962E-02
H  -0.8154136476E+00 -0.5396075951E+00 -0.1634146447E-02
           3
 Time step:           4
O   0.7372531521E-03  0.1187627160E+00 -0.1413997113E-02
H   0.7231602588E+00 -0.4948244483E+00  0.4029801262E-02
H  -0.7952855181E+00 -0.4712154051E+00  0.3366298413E-01
           3
 Time step:           5
O  -0.8302208211E-02  0.1179088162E+00  0.5292341325E-02
H   0.8213018078E+00 -0.5094839189E+00 -0.1675690129E-02
H  -0.7951818580E+00 -0.4402571105E+00 -0.4068169164E-01
           3
 Time step:           5
O  -0.3061433358E-02  0.1157250894E+00 -0.1928693076E-02
H   0.7436517419E+00 -0.4636655062E+00  0.6288582260E-01
H  -0.7971033230E+00 -0.4544348753E+00  0.6593056033E-02
           3
 Time step:           5
O  -0.1152032208E-02  0.1227060937E+00 -0.4401837376E-02
H   0.7659227826E+00 -0.4715894147E+00  0.6113539901E-01
H  -0.8486968712E+00 -0.5583740040E+00  0.4552067142E-01
           3
 Time step:           5
O  -0.7996845916E-03  0.1171990669E+00  0.3004437691E-02
H   0.7478174481E+00 -0.3890672069E+00 -0.6891582438E-02
H  -0.8340942681E+00 -0.5567434451E+00 -0.1788058910E-02
           3
 Time step:           5
O  -0.5250923143E-03  0.1195748689E+00 -0.5555733006E-03
H   0.7209966870E+00 -0.5017115344E+00  0.4842322339E-02
H  -0.8095828242E+00 -0.4742268519E+00  0.4200142794E-01
           3
 Time step:           6
O  -0.1218962798E-01  0.1187595361E+00  0.8646853505E-02
H   0.8326278258E+00 -0.5134512127E+00 -0.2500254037E-02
H  -0.8030700044E+00 -0.4362938722E+00 -0.4663837285E-01
           3
 Time step:           6
O  -0.6301599420E-02  0.1162482691E+00  0.1944289603E-06
H   0.7470914826E+00 -0.4633280983E+00  0.7433190569E-01
H  -0.8053309241E+00 -0.4512259469E+00  0.9075323667E-02
           3
 Time step:           6
O  -0.4348413052E-02  0.1245659101E+00 -0.2942531676E-02
H   0.7772057852E+00 -0.4758717874E+00  0.7183958326E-01
H  -0.8650845176E+00 -0.5720886375E+00  0.5478765227E-01
           3
 Time step:           6
O  -0.3994861645E-02  0.1180168970E+00  0.5912099538E-02
H   0.7572789402E+00 -0.3795880786E+00 -0.8683195841E-02
H  -0.8476217466E+00 -0.5695682094E+00 -0.1472404846E-02
           3
 Time step:           6
O  -0.3331400252E-02  0.1208571724E+00  0.1641510083E-02
H   0.7220581500E+00 -0.5076336597E+00  0.5353227561E-02
H  -0.8198426672E+00 -0.4749882817E+00  0.5062173923E-01
           3
 Time step:           7
O  -0.1686898674E-01  0.1202710871E+00  0.1294177031E-01
H   0.8426781198E+00 -0.5162137950E+00 -0.3700675315E-02
H  -0.8069962564E+00 -0.4312711230E+00 -0.5117588458E-01
           3
 Time step:           7
O  -0.1052085332E-01  0.1173966482E+00  0.2883578990E-02
H   0.7514626854E+00 -0.4631070067E+00  0.8504387290E-01
H  -0.8084126262E+00 -0.4454075398E+00  0.1245523755E-01
           3
 Time step:           7
O  -0.8682797691E-02  0.1269683425E+00 -0.5118970187E-03
H   0.7902043288E+00 -0.4810122868E+00  0.8159893030E-01
H  -0.8746419131E+00 -0.5810332650E+00  0.6443872809E-01
           3
 Time step:           7
O  -0.8361918925E-02  0.1194078795E+00  0.9771500737E-02
H   0.7691654596E+00 -0.3720770340E+00 -0.1085893377E-01
H  -0.8543559978E+00 -0.5774509844E+00 -0.4876842587E-03
           3
 Time step:           7
O  -0.7151865945E-02  0.1227576959E+00  0.4789077334E-02
H   0.7246004201E+00 -0.5133017273E+00  0.5478797824E-02
H  -0.8247071120E+00 -0.4730234787E+00  0.5970850503E-01
           3
 Time step:           8
O  -0.2034620336E-01  0.1223076139E+00  0.1667748434E-01
H   0.8508542517E+00 -0.5182829980E+00 -0.5245253916E-02
H  -0.8078350713E+00 -0.4257108284E+00 -0.5442901428E-01
           3
 Time step:           8
O  -0.1370909310E-01  0.1190096349E+00  0.5226236198E-02
H   0.7557352101E+00 -0.4631468275E+00  0.9498284745E-01
H  -0.8071010593E+00 -0.4374708656E+00  0.1655340986E-01
           3
 Time step:           8
O  -0.1214091003E-01  0.1297295379E+00  0.1398769862E-02
H   0.8035789109E+00 -0.4868727301E+00  0.9034375126E-01
H  -0.8779378219E+00 -0.5855690355E+00  0.7424897495E-01
           3
 Time step:           8
O  -0.1188941707E-01  0.1211917733E+00  0.1308721630E-01
H   0.7821380596E+00 -0.3664048586E+00 -0.1342588890E-01
H  -0.8548708883E+00 -0.5808054487E+00  0.9831852524E-03
           3
 Time step:           8
O  -0.9978976578E-02  0.1251138645E+00  0.7390350229E-02
H   0.7274738659E+00 -0.5189437454E+00  0.5229299400E-02
H  -0.8248861069E+00 -0.4687273491E+00  0.6906996464E-01
           3
 Time step:           9
O  -0.2230028079E-01  0.1246928128E+00  0.1928610252E-01
H   0.8571909765E+00 -0.5195660017E+00 -0.7180787819E-02
H  -0.8066264696E+00 -0.4203542718E+00 -0.5684797070E-01
           3
 Time step:           9
O  -0.1551779489E-01  0.1208935883E+00  0.6464552501E-02
H   0.7595012397E+00 -0.4629890448E+00  0.1040376584E+00
H  -0.8024866517E+00 -0.4282570434E+00  0.2089113098E-01
           3
 Time step:           9
O  -0.1436226793E-01  0.1326372298E+00  0.2229683089E-02
H   0.8166034652E+00 -0.4927097155E+00  0.9793878528E-01
H  -0.8759873929E+00 -0.5865078853E+00  0.8370862594E-01
           3
 Time step:           9
O  -0.1421893532E-01  0.1231595643E+00  0.1529535977E-01
H   0.7954654116E+00 -0.3618276481E+00 -0.1646957913E-01
H  -0.8501861579E+00 -0.5805042251E+00  0.2465793354E-02
           3
 Time step:           9
O  -0.1146617207E-01  0.1277299300E+00  0.8879965664E-02
H   0.7301776746E+00 -0.5241740933E+00  0.4537055507E-02
H  -0.8214287758E+00 -0.4628406640E+00  0.7823089989E-01
           3
 Time step:          10
O  -0.2349067510E-01  0.1272452497E+00  0.2115909300E-01
H   0.8618525309E+00 -0.5196531475E+00 -0.9689442856E-02
H  -0.8041340321E+00 -0.4154908492E+00 -0.5883520800E-01
           3
 Time step:          10
O  -0.1667304350E-01  0.1228567640E+00  0.6993914732E-02
H   0.7625153024E+00 -0.4618959281E+00  0.1119714447E+00
H  -0.7955044427E+00 -0.4182398070E+00  0.2505222349E-01
           3
 Time step:          10
O  -0.1605630250E-01  0.1354857029E+00  0.2379905621E-02
H   0.8287298828E+00 -0.4975231743E+00  0.1041304251E+00
H  -0.8697336417E+00 -0.5843686153E+00  0.9238298177E-01
           3
 Time step:          10
O  -0.1606128841E-01  0.1251084837E+00  0.1679108071E-01
H   0.8085917433E+00 -0.3573395647E+00 -0.2020795695E-01
H  -0.8412505030E+00 -0.5771280686E+00  0.3553380038E-02
           3
 Time step:          10
O  -0.1234107117E-01  0.1304120146E+00  0.9651556163E-02
H   0.7324032967E+00 -0.5283099211E+00  0.3200895222E-02
H  -0.8152325417E+00 -0.4557436894E+00  0.8679071721E-01
           3
 Time step:          11
O  -0.2433512442E-01  0.1297549171E+00  0.2268177590E-01
H   0.8648757075E+00 -0.5179315864E+00 -0.1310542798E-01
H  -0.8010130129E+00 -0.4109069476E+00 -0.6064875739E-01
           3
 Time step:          11
O  -0.1755487228E-01  0.1246862422E+00  0.7202854910E-02
H   0.7644516868E+00 -0.4589776043E+00  0.1184060869E+00
H  -0.7870905126E+00 -0.4074620923E+00  0.2878130869E-01
           3
 Time step:          11
O  -0.1758266225E-01  0.1380530198E+00  0.2241253642E-02
H   0.8393542352E+00 -0.5001933608E+00  0.1085310643E+00
H  -0.8601979004E+00 -0.5793044540E+00  0.1000116765E+00
           3
 Time step:          11
O  -0.1777684928E-01  0.1268191851E+00  0.1796265698E-01
H   0.8209038097E+00 -0.3518091043E+00 -0.2500764504E-01
H  -0.8290937801E+00 -0.5708893450E+00  0.4005322448E-02
           3
 Time step:          11
O  -0.1298487024E-01  0.1329450516E+00  0.1009199919E-01
H   0.7337875075E+00 -0.5304950991E+00  0.8695150639E-03
H  -0.8072016598E+00 -0.4474011884E+00  0.9451839023E-01
           3
 Time step:          12
O  -0.2496224444E-01  0.1320480009E+00  0.2406019988E-01
H   0.8661712641E+00 -0.5135503463E+00 -0.1795440530E-01
H  -0.7979404298E+00 -0.4063757624E+00 -0.6244751065E-01
           3
 Time step:          12
O  -0.1825233756E-01  0.1262138793E+00  0.7299492721E-02
H   0.7649320416E+00 -0.4531793863E+00  0.1227857758E+00
H  -0.7782987532E+00 -0.3960174009E+00  0.3193903919E-01
           3
 Time step:          12
O  -0.1900774508E-01  0.1401676577E+00  0.2024486187E-02
H   0.8478591203E+00 -0.4994803556E+00  0.1105831087E+00
H  -0.8485891353E+00 -0.5715787596E+00  0.1064640912E+00
           3
 Time step:          12
O  -0.1943207767E-01  0.1281223208E+00  0.1901792202E-01
H   0.8317732253E+00 -0.3439763000E+00 -0.3142073595E-01
H  -0.8149379814E+00 -0.5621058596E+00  0.3702113414E-02
           3
 Time step:          12
O  -0.1348738349E-01  0.1351587594E+00  0.1040802932E-01
H   0.7339321033E+00 -0.5296880311E+00 -0.2996645790E-02
H  -0.7983652010E+00 -0.4378499654E+00  0.1013043435E+00
           3
 Time step:          13
O  -0.2539247499E-01  0.1340448554E+00  0.2540438106E-01
H   0.8655798078E+00 -0.5054120351E+00 -0.2493209193E-01
H  -0.7956436422E+00 -0.4019322763E+00 -0.6434667850E-01
           3
 Time step:          13
O  -0.1874848235E-01  0.1273752949E+00  0.7394384427E-02
H   0.7636166331E+00 -0.4433011963E+00  0.1244025431E+00
H  -0.7703024938E+00 -0.3843078970E+00  0.3444497507E-01
           3
 Time step:          13
O  -0.2029187117E-01  0.1417680300E+00  0.1841996374E-02
H   0.8537241115E+00 -0.4940568050E+00  0.1095850645E+00
H  -0.8362905165E+00 -0.5618132883E+00  0.1116806481E+00
           3
 Time step:          13
O  -0.2098667430E-01  0.1289579937E+00  0.2006721027E-01
H   0.8406658813E+00 -0.3324829752E+00 -0.4015961645E-01
H  -0.8001847148E+00 -0.5514484699E+00  0.2586755929E-02
           3
 Time step:          13
O  -0.1383188945E-01  0.1369866674E+00  0.1070933475E-01
H   0.7324856050E+00 -0.5246842466E+00 -0.9102172687E-02
H  -0.7898787541E+00 -0.4274605267E+00  0.1071000272E+00
           3
 Time step:          14
O  -0.2561039421E-01  0.1357574261E+00  0.2678609396E-01
H   0.8628628395E+00 -0.4929221053E+00 -0.3459603661E-01
H  -0.7949339753E+00 -0.3978599385E+00 -0.6647974557E-01
           3
 Time step:          14
O  -0.1899774422E-01  0.1282074791E+00  0.7558105019E-02
H   0.7602313166E+00 -0.4287726658E+00  0.1227079361E+00
H  -0.7643860502E+00 -0.3730028229E+00  0.3621174556E-01
           3
 Time step:          14
O  -0.2136936323E-01  0.1429000965E+00  0.1765380615E-02
H   0.8565714532E+00 -0.4832942793E+00  0.1050032569E+00
H  -0.8248276202E+00 -0.5509297263E+00  0.1156038352E+00
           3
 Time step:          14
O  -0.2237360479E-01  0.1293732652E+00  0.2118116027E-01
H   0.8471846754E+00 -0.3166569930E+00 -0.5178602398E-01
H  -0.7863830929E+00 -0.5398822907E+00  0.5964862249E-03
           3
 Time step:          14
O  -0.1397232921E-01  0.1384637599E+00  0.1106643541E-01
H   0.7291601149E+00 -0.5148962860E+00 -0.1800750366E-01
H  -0.7830152447E+00 -0.4168959547E+00  0.1118490935E+00
           3
 Time step:          15
O  -0.2558609676E-01  0.1372521088E+00  0.2826613612E-01
H   0.8574069139E+00 -0.4780984532E+00 -0.4660393259E-01
H  -0.7970590972E+00 -0.3945798729E+00 -0.6912306110E-01
           3
 Time step:          15
O  -0.1895220013E-01  0.1288100917E+00  0.7848718841E-02
H   0.7542914277E+00 -0.4117717161E+00  0.1180740241E+00
H  -0.7622435724E+00 -0.3628891438E+00  0.3701441638E-01
           3
 Time step:          15
O  -0.2217726272E-01  0.1436776744E+00  0.1853104167E-02
H   0.8558999107E+00 -0.4693841303E+00  0.9723128995E-01
H  -0.8161379161E+00 -0.5399765781E+00  0.1180432835E+00
           3
 Time step:          15
O  -0.2352771617E-01  0.1294823682E+00  0.2241850310E-01
H   0.8507983249E+00 -0.2986324988E+00 -0.6595120754E-01
H  -0.7754978248E+00 -0.5284930981E+00 -0.2470813319E-02
           3
 Time step:          15
O  -0.1385926886E-01  0.1396877960E+00  0.1153839692E-01
H   0.7234457824E+00 -0.5024776416E+00 -0.2936933462E-01
H  -0.7794630742E+00 -0.4069599304E+00  0.1153544073E+00
           3
 Time step:          16
O  -0.2526407421E-01  0.1386100190E+00  0.2991026446E-01
H   0.8470591434E+00 -0.4654104127E+00 -0.5921193612E-01
H  -0.8049499689E+00 -0.3925200105E+00 -0.7304585870E-01
           3
 Time step:          16
O  -0.1855317672E-01  0.1293003981E+00  0.8328646837E-02
H   0.7439112014E+00 -0.3970307165E+00  0.1122862786E+00
H  -0.7671609153E+00 -0.3546862166E+00  0.3613173486E-01
           3
 Time step:          16
O  -0.2264836766E-01  0.1442344264E+00  0.2167828017E-02
H   0.8498826337E+00 -0.4571248956E+00  0.8807884890E-01
H  -0.8137183473E+00 -0.5299112882E+00  0.1183118733E+00
           3
 Time step:          16
O  -0.2437872261E-01  0.1294187569E+00  0.2384320000E-01
H   0.8496346272E+00 -0.2831408745E+00 -0.8090327013E-01
H  -0.7710551683E+00 -0.5182687176E+00 -0.7318177540E-02
           3
 Time step:          16
O  -0.1343124715E-01  0.1407742309E+00  0.1218966264E-01
H   0.7134139441E+00 -0.4921332228E+00 -0.4144514800E-01
H  -0.7825083737E+00 -0.3984064123E+00  0.1169179948E+00
           3
 Time step:          17
O  -0.2452085199E-01  0.1398985905E+00  0.3180392848E-01
H   0.8281590478E+00 -0.4571595882E+00 -0.7028210803E-01
H  -0.8228998589E+00 -0.3919262907E+00 -0.8031117639E-01
           3
 Time step:          17
O  -0.1769351962E-01  0.1297767302E+00  0.9080785700E-02
H   0.7258020438E+00 -0.3871789177E+00  0.1075249940E+00
H  -0.7835919825E+00 -0.3487678058E+00  0.3153261913E-01
           3
 Time step:          17
O  -0.2267600654E-01  0.1446829083E+00  0.2793224696E-02
H   0.8353543226E+00 -0.4492422672E+00  0.7974721419E-01
H  -0.8221518531E+00 -0.5212729637E+00  0.1144061824E+00
           3
 Time step:          17
O  -0.2481615415E-01  0.1292943624E+00  0.2554084722E-01
H   0.8404676087E+00 -0.2728381591E+00 -0.9450684181E-01
H  -0.7776687912E+00 -0.5097709965E+00 -0.1596514351E-01
           3
 Time step:          17
O  -0.1257688518E-01  0.1418196278E+00  0.1310602261E-01
H   0.6957142787E+00 -0.4864643514E+00 -0.5210800677E-01
H  -0.7966138311E+00 -0.3916550920E+00  0.1145272442E+00
           3
 Time step:          18
O  -0.2311480259E-01  0.1411647721E+00  0.3407432101E-01
H   0.8070674258E+00 -0.4527459680E+00 -0.7875716337E-01
H  -0.8446837870E+00 -0.3925959756E+00 -0.9399089655E-01
           3
 Time step:          18
O  -0.1617890350E-01  0.1303070748E+00  0.1023145841E-01
H   0.7068415138E+00 -0.3820398559E+00  0.1048870069E+00
H  -0.8051429921E+00 -0.3447969132E+00  0.2014954825E-01
           3
 Time step:          18
O  -0.2208118559E-01  0.1451003854E+00  0.3857635935E-02
H   0.8194077798E+00 -0.4456968354E+00  0.7334385657E-01
H  -0.8350305262E+00 -0.5137635961E+00  0.1032759223E+00
           3
 Time step:          18
O  -0.2465684966E-01  0.1291853583E+00  0.2764227087E-01
H   0.8303165722E+00 -0.2676175279E+00 -0.1057305325E+00
H  -0.7889634492E+00 -0.5027164969E+00 -0.3147387627E-01
           3
 Time step:          18
O  -0.1109605010E-01  0.1428901586E+00  0.1441788931E-01
H   0.6771452613E+00 -0.4852687224E+00 -0.6032898777E-01
H  -0.8154073536E+00 -0.3864180851E+00  0.1051287768E+00
           3
 Time step:          19
O  -0.2076059507E-01  0.1424432444E+00  0.3692222265E-01
H   0.7957819216E+00 -0.4511979799E+00 -0.8470290758E-01
H  -0.8583260116E+00 -0.3940761348E+00 -0.1123928128E+00
           3
 Time step:          19
O  -0.1378080495E-01  0.1309381045E+00  0.1198171289E-01
H   0.6994919710E+00 -0.3810437172E+00  0.1043354796E+00
H  -0.8194901308E+00 -0.3420620288E+00  0.3667446465E-02
           3
 Time step:          19
O  -0.2065469853E-01  0.1455380407E+00  0.5564439905E-02
H   0.8147099069E+00 -0.4460390614E+00  0.6883541068E-01
H  -0.8399482964E+00 -0.5066469836E+00  0.8662488061E-01
           3
 Time step:          19
O  -0.2368728737E-01  0.1291413055E+00  0.3035329184E-01
H   0.8317597518E+00 -0.2669674412E+00 -0.1146805755E+00
H  -0.7925649009E+00 -0.4963759414E+00 -0.5215141772E-01
           3
 Time step:          19
O  -0.8753331792E-02  0.1440304358E+00  0.1633036873E-01
H   0.6700823499E+00 -0.4879535675E+00 -0.6621108968E-01
H  -0.8266001359E+00 -0.3820286651E+00  0.9042149500E-01
           3
 Time step:          20
O  -0.1763863063E-01  0.1437603822E+00  0.4055015880E-01
H   0.7924655583E+00 -0.4518379306E+00 -0.8859608697E-01
H  -0.8660051563E+00 -0.3961279082E+00 -0.1278636920E+00
           3
 Time step:          20
O  -0.1070444647E-01  0.1316996356E+00  0.1453425285E-01
H   0.7020025523E+00 -0.3836621445E+00  0.1054071487E+00
H  -0.8286106271E+00 -0.3401848293E+00 -0.1025535740E-01
           3
 Time step:          20
O  -0.1860423397E-01  0.1460260744E+00  0.8117288490E-02
H   0.8195258325E+00 -0.4497388138E+00  0.6577209457E-01
H  -0.8388857147E+00 -0.4995761672E+00  0.7214146826E-01
           3
 Time step:          20
O  -0.2211067343E-01  0.1291907368E+00  0.3387863640E-01
H   0.8429577013E+00 -0.2703068102E+00 -0.1218485183E+00
H  -0.7904810618E+00 -0.4904044092E+00 -0.7032614628E-01
           3
 Time step:          20
O  -0.5747161795E-02  0.1452680375E+00  0.1904782230E-01
H   0.6726971959E+00 -0.4939681559E+00 -0.7024710627E-01
H  -0.8322126082E+00 -0.3781482436E+00  0.7807960480E-01
