           1
Time step:                   1 Sim. Time [au]          20.00
N     0.19996729E+01    0.70444077E-19    0.00000000E+00
           1
Time step:                   1 Sim. Time [au]          20.00
N     0.19995918E+01   -0.26800660E-21    0.00000000E+00
           1
Time step:                   2 Sim. Time [au]          40.00
N     0.19986987E+01    0.13835096E-18    0.00000000E+00
           1
Time step:                   2 Sim. Time [au]          40.00
N     0.19983769E+01   -0.10433456E-20    0.00000000E+00
