           1
Time step:                   1 Sim. Time [au]          20.00
N     0.19997339E+01    0.49042659E-19    0.00000000E+00
           1
Time step:                   1 Sim. Time [au]          20.00
N     0.19996528E+01   -0.21669425E-19    0.00000000E+00
           1
Time step:                   2 Sim. Time [au]          40.00
N     0.19990899E+01    0.63114994E-19    0.00000000E+00
           1
Time step:                   2 Sim. Time [au]          40.00
N     0.19987681E+01   -0.76279313E-19    0.00000000E+00
