           3
Time step:                   1 Sim. Time [au]          40.00
O    -0.80843624E-03    0.11562436E+00   -0.56679086E-03
H     0.76261471E+00   -0.46492274E+00   -0.14446497E-02
H    -0.74784964E+00   -0.45384495E+00   -0.15137678E-02
