           3
Units: a.u.;  Time step: 1
O   0.0000000000E+00 -0.3504628549E-04  0.0000000000E+00
H  -0.2049021472E-03  0.2781277389E-03  0.0000000000E+00
H   0.2049021472E-03  0.2781277389E-03  0.0000000000E+00
