           3
 Time step:           1
O  -0.4535930935E-04 -0.1406304061E-03 -0.2369059607E-04
H   0.2310065071E-03  0.4420191300E-03 -0.7377646265E-04
H   0.1963954400E-03  0.4638596758E-03 -0.7941866975E-04
